REMARK SMILES O=C(/C=C/c1ccc(O)cc1)CC(=O)/C=C/c1ccc(O)cc1
REMARK SMILES IDX 12 1 2 2 1 3 3 4 4 5 5 6 6 7 7 8 8 9 11 10 10 11 9 12 13 14
REMARK SMILES IDX 14 15 15 16 16 17 17 18 18 19 23 20 19 21 22 22 20 23 21 24
REMARK H PARENT 9 13 21 25
REMARK Flexibility Score: inf
ROOT
ATOM      1  C   UNL     1       0.101   3.896  -1.431  1.00  0.00     0.160 C 
ENDROOT
BRANCH   1   2
ATOM      2  C   UNL     1       1.005   3.295  -0.397  1.00  0.00     0.163 C 
ATOM      3  O   UNL     1       1.296   3.964   0.632  1.00  0.00    -0.294 OA
BRANCH   2   4
ATOM      4  C   UNL     1       1.500   1.913  -0.563  1.00  0.00     0.048 C 
ATOM      5  C   UNL     1       2.250   1.304   0.366  1.00  0.00     0.012 C 
BRANCH   5   6
ATOM      6  C   UNL     1       2.740  -0.089   0.235  1.00  0.00    -0.025 A 
ATOM      7  C   UNL     1       2.094  -1.045  -0.576  1.00  0.00     0.012 A 
ATOM      8  C   UNL     1       2.584  -2.352  -0.655  1.00  0.00     0.047 A 
ATOM      9  C   UNL     1       3.716  -2.727   0.079  1.00  0.00     0.115 A 
ATOM     10  C   UNL     1       3.865  -0.482   0.981  1.00  0.00     0.012 A 
ATOM     11  C   UNL     1       4.352  -1.789   0.897  1.00  0.00     0.047 A 
BRANCH   9  12
ATOM     12  O   UNL     1       4.213  -4.026   0.006  1.00  0.00    -0.508 OA
ATOM     13  H   UNL     1       3.774  -4.729  -0.578  1.00  0.00     0.293 HD
ENDBRANCH   9  12
ENDBRANCH   5   6
ENDBRANCH   2   4
ENDBRANCH   1   2
BRANCH   1  14
ATOM     14  C   UNL     1      -1.315   3.466  -1.187  1.00  0.00     0.163 C 
ATOM     15  O   UNL     1      -2.079   4.213  -0.517  1.00  0.00    -0.294 OA
BRANCH  14  16
ATOM     16  C   UNL     1      -1.784   2.156  -1.681  1.00  0.00     0.048 C 
ATOM     17  C   UNL     1      -3.016   1.694  -1.427  1.00  0.00     0.012 C 
BRANCH  17  18
ATOM     18  C   UNL     1      -3.505   0.373  -1.891  1.00  0.00    -0.025 A 
ATOM     19  C   UNL     1      -4.890   0.166  -2.000  1.00  0.00     0.012 A 
ATOM     20  C   UNL     1      -2.632  -0.695  -2.185  1.00  0.00     0.012 A 
ATOM     21  C   UNL     1      -5.394  -1.068  -2.421  1.00  0.00     0.047 A 
ATOM     22  C   UNL     1      -3.140  -1.929  -2.604  1.00  0.00     0.047 A 
ATOM     23  C   UNL     1      -4.523  -2.117  -2.726  1.00  0.00     0.115 A 
BRANCH  23  24
ATOM     24  O   UNL     1      -5.039  -3.342  -3.144  1.00  0.00    -0.508 OA
ATOM     25  H   UNL     1      -4.433  -4.122  -3.371  1.00  0.00     0.293 HD
ENDBRANCH  23  24
ENDBRANCH  17  18
ENDBRANCH  14  16
ENDBRANCH   1  14
TORSDOF 8
