REMARK SMILES Nc1ncccc1-c1nc2ccc(-c3ccccc3)nc2n1-c1ccc(CNCCc2ccc(C=O)c(O)c2)cc1
REMARK SMILES IDX 27 1 28 2 29 4 30 5 31 6 34 7 33 8 37 9 32 10 39 11 35 12
REMARK SMILES IDX 36 13 38 14 26 16 25 17 40 18 24 19 41 20 23 21 22 22 21 23
REMARK SMILES IDX 8 24 20 25 10 26 9 27 13 28 11 29 12 30 7 31 6 32 2 33 5 34
REMARK SMILES IDX 3 35 4 36 1 37 14 40 15 41 19 42 16 43 18 44 17 45
REMARK H PARENT 28 3 38 15 1 38 1 39
REMARK Flexibility Score: inf
ROOT
ATOM      1  C   UNL     1       2.825  -3.750   0.864  1.00  0.00     0.116 C 
ENDROOT
BRANCH   1   2
ATOM      2  N   UNL     1       3.630  -3.038  -0.138  1.00  0.00    -0.312 NA
ATOM      3  H   UNL     1       4.432  -3.656  -0.407  1.00  0.00     0.123 HD
BRANCH   2   4
ATOM      4  C   UNL     1       4.182  -1.782   0.394  1.00  0.00     0.086 C 
BRANCH   4   5
ATOM      5  C   UNL     1       4.578  -0.854  -0.759  1.00  0.00     0.051 C 
BRANCH   5   6
ATOM      6  C   UNL     1       3.396  -0.564  -1.651  1.00  0.00    -0.043 A 
ATOM      7  C   UNL     1       1.097  -0.148  -3.230  1.00  0.00     0.056 A 
ATOM      8  C   UNL     1       1.296   0.589  -2.051  1.00  0.00     0.015 A 
ATOM      9  C   UNL     1       2.059  -1.100  -3.617  1.00  0.00     0.126 A 
ATOM     10  C   UNL     1       2.434   0.383  -1.267  1.00  0.00     0.005 A 
ATOM     11  C   UNL     1       3.199  -1.304  -2.826  1.00  0.00     0.050 A 
BRANCH   7  12
ATOM     12  C   UNL     1      -0.118   0.065  -4.045  1.00  0.00     0.263 C 
ATOM     13  O   UNL     1      -1.011   0.874  -3.679  1.00  0.00    -0.298 OA
ENDBRANCH   7  12
BRANCH   9  14
ATOM     14  O   UNL     1       1.880  -1.849  -4.780  1.00  0.00    -0.507 OA
ATOM     15  H   UNL     1       2.557  -2.540  -5.078  1.00  0.00     0.293 HD
ENDBRANCH   9  14
ENDBRANCH   5   6
ENDBRANCH   4   5
ENDBRANCH   2   4
ENDBRANCH   1   2
BRANCH   1  16
ATOM     16  C   UNL     1       1.503  -3.060   1.098  1.00  0.00    -0.034 A 
ATOM     17  C   UNL     1       0.983  -2.962   2.399  1.00  0.00     0.007 A 
ATOM     18  C   UNL     1       0.767  -2.531   0.024  1.00  0.00     0.007 A 
ATOM     19  C   UNL     1      -0.234  -2.315   2.626  1.00  0.00     0.027 A 
ATOM     20  C   UNL     1      -0.438  -1.861   0.255  1.00  0.00     0.027 A 
ATOM     21  C   UNL     1      -0.946  -1.752   1.556  1.00  0.00     0.049 A 
BRANCH  21  22
ATOM     22  N   UNL     1      -2.186  -1.068   1.792  1.00  0.00    -0.277 N 
ATOM     23  C   UNL     1      -2.504   0.183   1.437  1.00  0.00     0.165 A 
ATOM     24  C   UNL     1      -3.269  -1.486   2.505  1.00  0.00     0.150 A 
ATOM     25  N   UNL     1      -1.718   1.082   0.795  1.00  0.00    -0.228 NA
ATOM     26  C   UNL     1      -3.735   0.493   1.913  1.00  0.00     0.109 A 
ATOM     27  N   UNL     1      -4.253  -0.546   2.593  1.00  0.00    -0.226 NA
ATOM     28  C   UNL     1      -2.194   2.348   0.574  1.00  0.00     0.073 A 
ATOM     29  C   UNL     1      -4.278   1.757   1.724  1.00  0.00     0.034 A 
ATOM     30  C   UNL     1      -3.494   2.701   1.036  1.00  0.00     0.031 A 
BRANCH  24  31
ATOM     31  C   UNL     1      -3.412  -2.842   3.073  1.00  0.00     0.060 A 
ATOM     32  C   UNL     1      -3.255  -3.954   2.234  1.00  0.00     0.017 A 
ATOM     33  C   UNL     1      -3.714  -3.059   4.437  1.00  0.00     0.134 A 
ATOM     34  C   UNL     1      -3.400  -5.245   2.742  1.00  0.00     0.021 A 
ATOM     35  N   UNL     1      -3.845  -4.333   4.899  1.00  0.00    -0.239 NA
ATOM     36  C   UNL     1      -3.699  -5.416   4.092  1.00  0.00     0.113 A 
BRANCH  33  37
ATOM     37  N   UNL     1      -3.840  -1.975   5.363  1.00  0.00    -0.383 N 
ATOM     38  H   UNL     1      -3.680  -0.981   5.086  1.00  0.00     0.158 HD
ATOM     39  H   UNL     1      -4.077  -2.171   6.361  1.00  0.00     0.158 HD
ENDBRANCH  33  37
ENDBRANCH  24  31
BRANCH  28  40
ATOM     40  C   UNL     1      -1.326   3.337  -0.104  1.00  0.00     0.000 A 
ATOM     41  C   UNL     1       0.067   3.293   0.088  1.00  0.00     0.010 A 
ATOM     42  C   UNL     1      -1.866   4.316  -0.961  1.00  0.00     0.010 A 
ATOM     43  C   UNL     1       0.901   4.206  -0.564  1.00  0.00     0.001 A 
ATOM     44  C   UNL     1      -1.027   5.229  -1.607  1.00  0.00     0.001 A 
ATOM     45  C   UNL     1       0.354   5.174  -1.409  1.00  0.00     0.000 A 
ENDBRANCH  28  40
ENDBRANCH  21  22
ENDBRANCH   1  16
TORSDOF 11
