MODEL 1
REMARK VINA RESULT:   -12.417      0.000      0.000
REMARK INTER + INTRA:         -21.605
REMARK INTER:                 -19.677
REMARK INTRA:                  -1.928
REMARK UNBOUND:                -1.928
REMARK SMILES Nc1ncccc1-c1nc2ccc(-c3ccccc3)nc2n1-c1ccc(CNCCc2ccc(C=O)c(O)c2)cc1
REMARK SMILES IDX 27 1 28 2 29 4 30 5 31 6 34 7 33 8 37 9 32 10 39 11 35 12
REMARK SMILES IDX 36 13 38 14 26 16 25 17 40 18 24 19 41 20 23 21 22 22 21 23
REMARK SMILES IDX 8 24 20 25 10 26 9 27 13 28 11 29 12 30 7 31 6 32 2 33 5 34
REMARK SMILES IDX 3 35 4 36 1 37 14 40 15 41 19 42 16 43 18 44 17 45
REMARK H PARENT 28 3 38 15 1 38 1 39
REMARK Flexibility Score: inf
ROOT
ATOM      1  C   UNL     1      16.311  11.813 -32.629  1.00  0.00     0.116 C 
ENDROOT
BRANCH   1   2
ATOM      2  N   UNL     1      16.426  13.274 -32.731  1.00  0.00    -0.312 NA
ATOM      3  H   UNL     1      15.520  13.645 -33.104  1.00  0.00     0.123 HD
BRANCH   2   4
ATOM      4  C   UNL     1      17.497  13.676 -33.656  1.00  0.00     0.086 C 
BRANCH   4   5
ATOM      5  C   UNL     1      18.857  13.234 -33.107  1.00  0.00     0.051 C 
BRANCH   5   6
ATOM      6  C   UNL     1      19.977  13.658 -34.025  1.00  0.00    -0.043 A 
ATOM      7  C   UNL     1      21.982  14.605 -35.768  1.00  0.00     0.056 A 
ATOM      8  C   UNL     1      22.071  14.834 -34.385  1.00  0.00     0.015 A 
ATOM      9  C   UNL     1      20.877  13.896 -36.278  1.00  0.00     0.126 A 
ATOM     10  C   UNL     1      21.078  14.366 -33.521  1.00  0.00     0.005 A 
ATOM     11  C   UNL     1      19.882  13.430 -35.406  1.00  0.00     0.050 A 
BRANCH   7  12
ATOM     12  C   UNL     1      23.029  15.117 -36.677  1.00  0.00     0.263 C 
ATOM     13  O   UNL     1      22.749  15.482 -37.849  1.00  0.00    -0.298 OA
ENDBRANCH   7  12
BRANCH   9  14
ATOM     14  O   UNL     1      20.763  13.663 -37.648  1.00  0.00    -0.507 OA
ATOM     15  H   UNL     1      19.892  13.813 -38.143  1.00  0.00     0.293 HD
ENDBRANCH   9  14
ENDBRANCH   5   6
ENDBRANCH   4   5
ENDBRANCH   2   4
ENDBRANCH   1   2
BRANCH   1  16
ATOM     16  C   UNL     1      15.662  11.403 -31.329  1.00  0.00    -0.034 A 
ATOM     17  C   UNL     1      15.555  10.042 -30.997  1.00  0.00     0.007 A 
ATOM     18  C   UNL     1      15.139  12.366 -30.450  1.00  0.00     0.007 A 
ATOM     19  C   UNL     1      14.966   9.654 -29.791  1.00  0.00     0.027 A 
ATOM     20  C   UNL     1      14.574  11.978 -29.231  1.00  0.00     0.027 A 
ATOM     21  C   UNL     1      14.482  10.621 -28.897  1.00  0.00     0.049 A 
BRANCH  21  22
ATOM     22  N   UNL     1      13.897  10.223 -27.647  1.00  0.00    -0.277 N 
ATOM     23  C   UNL     1      14.531   9.994 -26.490  1.00  0.00     0.165 A 
ATOM     24  C   UNL     1      12.603   9.895 -27.377  1.00  0.00     0.150 A 
ATOM     25  N   UNL     1      15.863  10.068 -26.252  1.00  0.00    -0.228 NA
ATOM     26  C   UNL     1      13.643   9.555 -25.564  1.00  0.00     0.109 A 
ATOM     27  N   UNL     1      12.408   9.485 -26.091  1.00  0.00    -0.226 NA
ATOM     28  C   UNL     1      16.341   9.729 -25.013  1.00  0.00     0.073 A 
ATOM     29  C   UNL     1      14.059   9.196 -24.289  1.00  0.00     0.034 A 
ATOM     30  C   UNL     1      15.434   9.290 -24.006  1.00  0.00     0.031 A 
BRANCH  24  31
ATOM     31  C   UNL     1      11.496  10.032 -28.345  1.00  0.00     0.060 A 
ATOM     32  C   UNL     1      11.197  11.298 -28.867  1.00  0.00     0.017 A 
ATOM     33  C   UNL     1      10.715   8.927 -28.757  1.00  0.00     0.134 A 
ATOM     34  C   UNL     1      10.147  11.456 -29.771  1.00  0.00     0.021 A 
ATOM     35  N   UNL     1       9.700   9.118 -29.643  1.00  0.00    -0.239 NA
ATOM     36  C   UNL     1       9.401  10.342 -30.151  1.00  0.00     0.113 A 
BRANCH  33  37
ATOM     37  N   UNL     1      10.992   7.598 -28.304  1.00  0.00    -0.383 N 
ATOM     38  H   UNL     1      11.965   7.231 -28.206  1.00  0.00     0.158 HD
ATOM     39  H   UNL     1      10.203   6.951 -28.082  1.00  0.00     0.158 HD
ENDBRANCH  33  37
ENDBRANCH  24  31
BRANCH  28  40
ATOM     40  C   UNL     1      17.798   9.786 -24.761  1.00  0.00     0.000 A 
ATOM     41  C   UNL     1      18.437   8.717 -24.107  1.00  0.00     0.010 A 
ATOM     42  C   UNL     1      18.570  10.886 -25.184  1.00  0.00     0.010 A 
ATOM     43  C   UNL     1      19.816   8.746 -23.883  1.00  0.00     0.001 A 
ATOM     44  C   UNL     1      19.949  10.911 -24.953  1.00  0.00     0.001 A 
ATOM     45  C   UNL     1      20.571   9.843 -24.304  1.00  0.00     0.000 A 
ENDBRANCH  28  40
ENDBRANCH  21  22
ENDBRANCH   1  16
TORSDOF 11
ENDMDL
MODEL 2
REMARK VINA RESULT:   -11.955      1.744      6.047
REMARK INTER + INTRA:         -20.873
REMARK INTER:                 -19.425
REMARK INTRA:                  -1.448
REMARK UNBOUND:                -1.928
REMARK SMILES Nc1ncccc1-c1nc2ccc(-c3ccccc3)nc2n1-c1ccc(CNCCc2ccc(C=O)c(O)c2)cc1
REMARK SMILES IDX 27 1 28 2 29 4 30 5 31 6 34 7 33 8 37 9 32 10 39 11 35 12
REMARK SMILES IDX 36 13 38 14 26 16 25 17 40 18 24 19 41 20 23 21 22 22 21 23
REMARK SMILES IDX 8 24 20 25 10 26 9 27 13 28 11 29 12 30 7 31 6 32 2 33 5 34
REMARK SMILES IDX 3 35 4 36 1 37 14 40 15 41 19 42 16 43 18 44 17 45
REMARK H PARENT 28 3 38 15 1 38 1 39
REMARK Flexibility Score: inf
ROOT
ATOM      1  C   UNL     1      18.722  13.471 -31.269  1.00  0.00     0.116 C 
ENDROOT
BRANCH   1   2
ATOM      2  N   UNL     1      17.713  14.020 -32.185  1.00  0.00    -0.312 NA
ATOM      3  H   UNL     1      16.774  13.919 -31.731  1.00  0.00     0.123 HD
BRANCH   2   4
ATOM      4  C   UNL     1      17.680  13.294 -33.464  1.00  0.00     0.086 C 
BRANCH   4   5
ATOM      5  C   UNL     1      19.015  12.577 -33.694  1.00  0.00     0.051 C 
BRANCH   5   6
ATOM      6  C   UNL     1      19.944  13.419 -34.534  1.00  0.00    -0.043 A 
ATOM      7  C   UNL     1      21.782  14.847 -36.125  1.00  0.00     0.056 A 
ATOM      8  C   UNL     1      20.680  14.203 -36.711  1.00  0.00     0.015 A 
ATOM      9  C   UNL     1      21.961  14.772 -34.731  1.00  0.00     0.126 A 
ATOM     10  C   UNL     1      19.769  13.494 -35.924  1.00  0.00     0.005 A 
ATOM     11  C   UNL     1      21.045  14.058 -33.945  1.00  0.00     0.050 A 
BRANCH   7  12
ATOM     12  C   UNL     1      22.750  15.582 -36.967  1.00  0.00     0.263 C 
ATOM     13  O   UNL     1      23.102  15.136 -38.091  1.00  0.00    -0.298 OA
ENDBRANCH   7  12
BRANCH   9  14
ATOM     14  O   UNL     1      23.051  15.398 -34.126  1.00  0.00    -0.507 OA
ATOM     15  H   UNL     1      23.999  15.074 -34.273  1.00  0.00     0.293 HD
ENDBRANCH   9  14
ENDBRANCH   5   6
ENDBRANCH   4   5
ENDBRANCH   2   4
ENDBRANCH   1   2
BRANCH   1  16
ATOM     16  C   UNL     1      18.077  12.729 -30.123  1.00  0.00    -0.034 A 
ATOM     17  C   UNL     1      18.136  11.326 -30.073  1.00  0.00     0.007 A 
ATOM     18  C   UNL     1      17.393  13.422 -29.111  1.00  0.00     0.007 A 
ATOM     19  C   UNL     1      17.553  10.632 -29.011  1.00  0.00     0.027 A 
ATOM     20  C   UNL     1      16.831  12.729 -28.034  1.00  0.00     0.027 A 
ATOM     21  C   UNL     1      16.906  11.331 -27.980  1.00  0.00     0.049 A 
BRANCH  21  22
ATOM     22  N   UNL     1      16.325  10.619 -26.877  1.00  0.00    -0.277 N 
ATOM     23  C   UNL     1      15.066  10.177 -26.768  1.00  0.00     0.165 A 
ATOM     24  C   UNL     1      16.877  10.322 -25.667  1.00  0.00     0.150 A 
ATOM     25  N   UNL     1      14.061  10.322 -27.667  1.00  0.00    -0.228 NA
ATOM     26  C   UNL     1      14.880   9.628 -25.542  1.00  0.00     0.109 A 
ATOM     27  N   UNL     1      16.011   9.699 -24.817  1.00  0.00    -0.226 NA
ATOM     28  C   UNL     1      12.811   9.859 -27.352  1.00  0.00     0.073 A 
ATOM     29  C   UNL     1      13.638   9.139 -25.158  1.00  0.00     0.034 A 
ATOM     30  C   UNL     1      12.585   9.252 -26.083  1.00  0.00     0.031 A 
BRANCH  24  31
ATOM     31  C   UNL     1      18.289  10.577 -25.317  1.00  0.00     0.060 A 
ATOM     32  C   UNL     1      18.877  11.792 -25.695  1.00  0.00     0.017 A 
ATOM     33  C   UNL     1      19.075   9.631 -24.622  1.00  0.00     0.134 A 
ATOM     34  C   UNL     1      20.214  12.052 -25.390  1.00  0.00     0.021 A 
ATOM     35  N   UNL     1      20.375   9.919 -24.338  1.00  0.00    -0.239 NA
ATOM     36  C   UNL     1      20.954  11.092 -24.704  1.00  0.00     0.113 A 
BRANCH  33  37
ATOM     37  N   UNL     1      18.529   8.390 -24.161  1.00  0.00    -0.383 N 
ATOM     38  H   UNL     1      18.008   7.740 -24.791  1.00  0.00     0.158 HD
ATOM     39  H   UNL     1      18.628   8.122 -23.157  1.00  0.00     0.158 HD
ENDBRANCH  33  37
ENDBRANCH  24  31
BRANCH  28  40
ATOM     40  C   UNL     1      11.708  10.040 -28.323  1.00  0.00     0.000 A 
ATOM     41  C   UNL     1      10.996   8.921 -28.789  1.00  0.00     0.010 A 
ATOM     42  C   UNL     1      11.340  11.322 -28.778  1.00  0.00     0.010 A 
ATOM     43  C   UNL     1       9.937   9.079 -29.688  1.00  0.00     0.001 A 
ATOM     44  C   UNL     1      10.283  11.473 -29.680  1.00  0.00     0.001 A 
ATOM     45  C   UNL     1       9.583  10.354 -30.135  1.00  0.00     0.000 A 
ENDBRANCH  28  40
ENDBRANCH  21  22
ENDBRANCH   1  16
TORSDOF 11
ENDMDL
MODEL 3
REMARK VINA RESULT:   -11.839      2.407      6.471
REMARK INTER + INTRA:         -20.688
REMARK INTER:                 -18.986
REMARK INTRA:                  -1.702
REMARK UNBOUND:                -1.928
REMARK SMILES Nc1ncccc1-c1nc2ccc(-c3ccccc3)nc2n1-c1ccc(CNCCc2ccc(C=O)c(O)c2)cc1
REMARK SMILES IDX 27 1 28 2 29 4 30 5 31 6 34 7 33 8 37 9 32 10 39 11 35 12
REMARK SMILES IDX 36 13 38 14 26 16 25 17 40 18 24 19 41 20 23 21 22 22 21 23
REMARK SMILES IDX 8 24 20 25 10 26 9 27 13 28 11 29 12 30 7 31 6 32 2 33 5 34
REMARK SMILES IDX 3 35 4 36 1 37 14 40 15 41 19 42 16 43 18 44 17 45
REMARK H PARENT 28 3 38 15 1 38 1 39
REMARK Flexibility Score: inf
ROOT
ATOM      1  C   UNL     1      18.326  13.596 -31.666  1.00  0.00     0.116 C 
ENDROOT
BRANCH   1   2
ATOM      2  N   UNL     1      17.280  13.745 -32.687  1.00  0.00    -0.312 NA
ATOM      3  H   UNL     1      16.361  13.857 -32.195  1.00  0.00     0.123 HD
BRANCH   2   4
ATOM      4  C   UNL     1      17.189  12.561 -33.556  1.00  0.00     0.086 C 
BRANCH   4   5
ATOM      5  C   UNL     1      18.415  12.489 -34.473  1.00  0.00     0.051 C 
BRANCH   5   6
ATOM      6  C   UNL     1      18.053  12.856 -35.891  1.00  0.00    -0.043 A 
ATOM      7  C   UNL     1      17.550  13.526 -38.583  1.00  0.00     0.056 A 
ATOM      8  C   UNL     1      17.501  12.188 -38.160  1.00  0.00     0.015 A 
ATOM      9  C   UNL     1      17.855  14.533 -37.648  1.00  0.00     0.126 A 
ATOM     10  C   UNL     1      17.751  11.854 -36.826  1.00  0.00     0.005 A 
ATOM     11  C   UNL     1      18.106  14.193 -36.311  1.00  0.00     0.050 A 
BRANCH   7  12
ATOM     12  C   UNL     1      17.299  13.869 -40.000  1.00  0.00     0.263 C 
ATOM     13  O   UNL     1      16.408  14.699 -40.318  1.00  0.00    -0.298 OA
ENDBRANCH   7  12
BRANCH   9  14
ATOM     14  O   UNL     1      17.916  15.869 -38.046  1.00  0.00    -0.507 OA
ATOM     15  H   UNL     1      17.289  16.245 -38.746  1.00  0.00     0.293 HD
ENDBRANCH   9  14
ENDBRANCH   5   6
ENDBRANCH   4   5
ENDBRANCH   2   4
ENDBRANCH   1   2
BRANCH   1  16
ATOM     16  C   UNL     1      17.808  12.864 -30.452  1.00  0.00    -0.034 A 
ATOM     17  C   UNL     1      16.990  13.531 -29.525  1.00  0.00     0.007 A 
ATOM     18  C   UNL     1      18.153  11.522 -30.219  1.00  0.00     0.007 A 
ATOM     19  C   UNL     1      16.497  12.859 -28.405  1.00  0.00     0.027 A 
ATOM     20  C   UNL     1      17.638  10.841 -29.111  1.00  0.00     0.027 A 
ATOM     21  C   UNL     1      16.810  11.507 -28.198  1.00  0.00     0.049 A 
BRANCH  21  22
ATOM     22  N   UNL     1      16.286  10.809 -27.058  1.00  0.00    -0.277 N 
ATOM     23  C   UNL     1      15.052  10.311 -26.907  1.00  0.00     0.165 A 
ATOM     24  C   UNL     1      16.874  10.584 -25.850  1.00  0.00     0.150 A 
ATOM     25  N   UNL     1      14.025  10.374 -27.790  1.00  0.00    -0.228 NA
ATOM     26  C   UNL     1      14.917   9.799 -25.659  1.00  0.00     0.109 A 
ATOM     27  N   UNL     1      16.057   9.952 -24.960  1.00  0.00    -0.226 NA
ATOM     28  C   UNL     1      12.805   9.863 -27.432  1.00  0.00     0.073 A 
ATOM     29  C   UNL     1      13.708   9.266 -25.231  1.00  0.00     0.034 A 
ATOM     30  C   UNL     1      12.633   9.293 -26.138  1.00  0.00     0.031 A 
BRANCH  24  31
ATOM     31  C   UNL     1      18.279  10.919 -25.539  1.00  0.00     0.060 A 
ATOM     32  C   UNL     1      18.800  12.147 -25.971  1.00  0.00     0.017 A 
ATOM     33  C   UNL     1      19.124  10.038 -24.826  1.00  0.00     0.134 A 
ATOM     34  C   UNL     1      20.127  12.482 -25.704  1.00  0.00     0.021 A 
ATOM     35  N   UNL     1      20.413  10.399 -24.580  1.00  0.00    -0.239 NA
ATOM     36  C   UNL     1      20.927  11.584 -25.000  1.00  0.00     0.113 A 
BRANCH  33  37
ATOM     37  N   UNL     1      18.648   8.790 -24.311  1.00  0.00    -0.383 N 
ATOM     38  H   UNL     1      18.591   8.592 -23.287  1.00  0.00     0.158 HD
ATOM     39  H   UNL     1      18.367   8.030 -24.971  1.00  0.00     0.158 HD
ENDBRANCH  33  37
ENDBRANCH  24  31
BRANCH  28  40
ATOM     40  C   UNL     1      11.677   9.955 -28.386  1.00  0.00     0.000 A 
ATOM     41  C   UNL     1      11.286  11.210 -28.889  1.00  0.00     0.010 A 
ATOM     42  C   UNL     1      10.993   8.803 -28.821  1.00  0.00     0.010 A 
ATOM     43  C   UNL     1      10.238  11.309 -29.808  1.00  0.00     0.001 A 
ATOM     44  C   UNL     1       9.942   8.909 -29.738  1.00  0.00     0.001 A 
ATOM     45  C   UNL     1       9.566  10.160 -30.230  1.00  0.00     0.000 A 
ENDBRANCH  28  40
ENDBRANCH  21  22
ENDBRANCH   1  16
TORSDOF 11
ENDMDL
MODEL 4
REMARK VINA RESULT:    -9.872      5.624     10.583
REMARK INTER + INTRA:         -17.571
REMARK INTER:                 -15.970
REMARK INTRA:                  -1.601
REMARK UNBOUND:                -1.928
REMARK SMILES Nc1ncccc1-c1nc2ccc(-c3ccccc3)nc2n1-c1ccc(CNCCc2ccc(C=O)c(O)c2)cc1
REMARK SMILES IDX 27 1 28 2 29 4 30 5 31 6 34 7 33 8 37 9 32 10 39 11 35 12
REMARK SMILES IDX 36 13 38 14 26 16 25 17 40 18 24 19 41 20 23 21 22 22 21 23
REMARK SMILES IDX 8 24 20 25 10 26 9 27 13 28 11 29 12 30 7 31 6 32 2 33 5 34
REMARK SMILES IDX 3 35 4 36 1 37 14 40 15 41 19 42 16 43 18 44 17 45
REMARK H PARENT 28 3 38 15 1 38 1 39
REMARK Flexibility Score: inf
ROOT
ATOM      1  C   UNL     1      17.185  11.791 -38.866  1.00  0.00     0.116 C 
ENDROOT
BRANCH   1   2
ATOM      2  N   UNL     1      16.075  12.663 -39.276  1.00  0.00    -0.312 NA
ATOM      3  H   UNL     1      15.374  12.680 -38.498  1.00  0.00     0.123 HD
BRANCH   2   4
ATOM      4  C   UNL     1      15.402  12.161 -40.484  1.00  0.00     0.086 C 
BRANCH   4   5
ATOM      5  C   UNL     1      15.916  10.758 -40.826  1.00  0.00     0.051 C 
BRANCH   5   6
ATOM      6  C   UNL     1      14.774   9.780 -40.953  1.00  0.00    -0.043 A 
ATOM      7  C   UNL     1      12.588   8.040 -41.335  1.00  0.00     0.056 A 
ATOM      8  C   UNL     1      13.834   7.759 -41.919  1.00  0.00     0.015 A 
ATOM      9  C   UNL     1      12.440   9.203 -40.555  1.00  0.00     0.126 A 
ATOM     10  C   UNL     1      14.918   8.621 -41.732  1.00  0.00     0.005 A 
ATOM     11  C   UNL     1      13.531  10.065 -40.371  1.00  0.00     0.050 A 
BRANCH   7  12
ATOM     12  C   UNL     1      11.442   7.131 -41.552  1.00  0.00     0.263 C 
ATOM     13  O   UNL     1      10.311   7.580 -41.877  1.00  0.00    -0.298 OA
ENDBRANCH   7  12
BRANCH   9  14
ATOM     14  O   UNL     1      11.211   9.507 -39.971  1.00  0.00    -0.507 OA
ATOM     15  H   UNL     1      11.104   9.592 -38.968  1.00  0.00     0.293 HD
ENDBRANCH   9  14
ENDBRANCH   5   6
ENDBRANCH   4   5
ENDBRANCH   2   4
ENDBRANCH   1   2
BRANCH   1  16
ATOM     16  C   UNL     1      17.846  12.299 -37.607  1.00  0.00    -0.034 A 
ATOM     17  C   UNL     1      17.369  13.464 -36.985  1.00  0.00     0.007 A 
ATOM     18  C   UNL     1      18.955  11.633 -37.057  1.00  0.00     0.007 A 
ATOM     19  C   UNL     1      17.967  13.934 -35.813  1.00  0.00     0.027 A 
ATOM     20  C   UNL     1      19.537  12.089 -35.871  1.00  0.00     0.027 A 
ATOM     21  C   UNL     1      19.048  13.243 -35.245  1.00  0.00     0.049 A 
BRANCH  21  22
ATOM     22  N   UNL     1      19.649  13.714 -34.029  1.00  0.00    -0.277 N 
ATOM     23  C   UNL     1      19.170  13.591 -32.785  1.00  0.00     0.165 A 
ATOM     24  C   UNL     1      20.772  14.469 -33.869  1.00  0.00     0.150 A 
ATOM     25  N   UNL     1      18.004  13.012 -32.405  1.00  0.00    -0.228 NA
ATOM     26  C   UNL     1      19.984  14.240 -31.916  1.00  0.00     0.109 A 
ATOM     27  N   UNL     1      21.015  14.806 -32.570  1.00  0.00    -0.226 NA
ATOM     28  C   UNL     1      17.644  13.040 -31.083  1.00  0.00     0.073 A 
ATOM     29  C   UNL     1      19.679  14.306 -30.563  1.00  0.00     0.034 A 
ATOM     30  C   UNL     1      18.489  13.689 -30.138  1.00  0.00     0.031 A 
BRANCH  24  31
ATOM     31  C   UNL     1      21.686  14.835 -34.969  1.00  0.00     0.060 A 
ATOM     32  C   UNL     1      22.962  14.255 -35.019  1.00  0.00     0.017 A 
ATOM     33  C   UNL     1      21.323  15.763 -35.973  1.00  0.00     0.134 A 
ATOM     34  C   UNL     1      23.850  14.596 -36.040  1.00  0.00     0.021 A 
ATOM     35  N   UNL     1      22.214  16.069 -36.955  1.00  0.00    -0.239 NA
ATOM     36  C   UNL     1      23.454  15.515 -37.009  1.00  0.00     0.113 A 
BRANCH  33  37
ATOM     37  N   UNL     1      20.022  16.357 -36.014  1.00  0.00    -0.383 N 
ATOM     38  H   UNL     1      19.483  16.585 -35.149  1.00  0.00     0.158 HD
ATOM     39  H   UNL     1      19.572  16.555 -36.935  1.00  0.00     0.158 HD
ENDBRANCH  33  37
ENDBRANCH  24  31
BRANCH  28  40
ATOM     40  C   UNL     1      16.359  12.431 -30.672  1.00  0.00     0.000 A 
ATOM     41  C   UNL     1      15.800  11.393 -31.440  1.00  0.00     0.010 A 
ATOM     42  C   UNL     1      15.688  12.856 -29.509  1.00  0.00     0.010 A 
ATOM     43  C   UNL     1      14.599  10.792 -31.051  1.00  0.00     0.001 A 
ATOM     44  C   UNL     1      14.485  12.254 -29.128  1.00  0.00     0.001 A 
ATOM     45  C   UNL     1      13.942  11.224 -29.897  1.00  0.00     0.000 A 
ENDBRANCH  28  40
ENDBRANCH  21  22
ENDBRANCH   1  16
TORSDOF 11
ENDMDL
MODEL 5
REMARK VINA RESULT:    -9.853      1.621      2.210
REMARK INTER + INTRA:         -17.541
REMARK INTER:                 -16.598
REMARK INTRA:                  -0.943
REMARK UNBOUND:                -1.928
REMARK SMILES Nc1ncccc1-c1nc2ccc(-c3ccccc3)nc2n1-c1ccc(CNCCc2ccc(C=O)c(O)c2)cc1
REMARK SMILES IDX 27 1 28 2 29 4 30 5 31 6 34 7 33 8 37 9 32 10 39 11 35 12
REMARK SMILES IDX 36 13 38 14 26 16 25 17 40 18 24 19 41 20 23 21 22 22 21 23
REMARK SMILES IDX 8 24 20 25 10 26 9 27 13 28 11 29 12 30 7 31 6 32 2 33 5 34
REMARK SMILES IDX 3 35 4 36 1 37 14 40 15 41 19 42 16 43 18 44 17 45
REMARK H PARENT 28 3 38 15 1 38 1 39
REMARK Flexibility Score: inf
ROOT
ATOM      1  C   UNL     1      17.470  13.394 -31.961  1.00  0.00     0.116 C 
ENDROOT
BRANCH   1   2
ATOM      2  N   UNL     1      18.581  14.302 -31.645  1.00  0.00    -0.312 NA
ATOM      3  H   UNL     1      18.298  14.886 -30.823  1.00  0.00     0.123 HD
BRANCH   2   4
ATOM      4  C   UNL     1      18.884  15.207 -32.765  1.00  0.00     0.086 C 
BRANCH   4   5
ATOM      5  C   UNL     1      18.860  14.432 -34.086  1.00  0.00     0.051 C 
BRANCH   5   6
ATOM      6  C   UNL     1      20.162  14.592 -34.832  1.00  0.00    -0.043 A 
ATOM      7  C   UNL     1      22.654  14.993 -36.090  1.00  0.00     0.056 A 
ATOM      8  C   UNL     1      22.457  13.902 -35.228  1.00  0.00     0.015 A 
ATOM      9  C   UNL     1      21.592  15.888 -36.321  1.00  0.00     0.126 A 
ATOM     10  C   UNL     1      21.223  13.703 -34.603  1.00  0.00     0.005 A 
ATOM     11  C   UNL     1      20.356  15.685 -35.690  1.00  0.00     0.050 A 
BRANCH   7  12
ATOM     12  C   UNL     1      23.967  15.205 -36.735  1.00  0.00     0.263 C 
ATOM     13  O   UNL     1      24.057  15.389 -37.978  1.00  0.00    -0.298 OA
ENDBRANCH   7  12
BRANCH   9  14
ATOM     14  O   UNL     1      21.765  16.983 -37.167  1.00  0.00    -0.507 OA
ATOM     15  H   UNL     1      22.478  16.993 -37.886  1.00  0.00     0.293 HD
ENDBRANCH   9  14
ENDBRANCH   5   6
ENDBRANCH   4   5
ENDBRANCH   2   4
ENDBRANCH   1   2
BRANCH   1  16
ATOM     16  C   UNL     1      16.975  12.681 -30.726  1.00  0.00    -0.034 A 
ATOM     17  C   UNL     1      15.818  13.134 -30.070  1.00  0.00     0.007 A 
ATOM     18  C   UNL     1      17.671  11.578 -30.203  1.00  0.00     0.007 A 
ATOM     19  C   UNL     1      15.346  12.474 -28.933  1.00  0.00     0.027 A 
ATOM     20  C   UNL     1      17.184  10.902 -29.080  1.00  0.00     0.027 A 
ATOM     21  C   UNL     1      16.021  11.348 -28.438  1.00  0.00     0.049 A 
BRANCH  21  22
ATOM     22  N   UNL     1      15.524  10.656 -27.283  1.00  0.00    -0.277 N 
ATOM     23  C   UNL     1      16.218  10.276 -26.203  1.00  0.00     0.165 A 
ATOM     24  C   UNL     1      14.280  10.146 -27.063  1.00  0.00     0.150 A 
ATOM     25  N   UNL     1      17.543  10.445 -25.974  1.00  0.00    -0.228 NA
ATOM     26  C   UNL     1      15.412   9.575 -25.367  1.00  0.00     0.109 A 
ATOM     27  N   UNL     1      14.172   9.477 -25.880  1.00  0.00    -0.226 NA
ATOM     28  C   UNL     1      18.096   9.925 -24.832  1.00  0.00     0.073 A 
ATOM     29  C   UNL     1      15.907   9.022 -24.193  1.00  0.00     0.034 A 
ATOM     30  C   UNL     1      17.274   9.206 -23.918  1.00  0.00     0.031 A 
BRANCH  24  31
ATOM     31  C   UNL     1      13.131  10.349 -27.969  1.00  0.00     0.060 A 
ATOM     32  C   UNL     1      12.026  11.083 -27.517  1.00  0.00     0.017 A 
ATOM     33  C   UNL     1      13.102   9.816 -29.278  1.00  0.00     0.134 A 
ATOM     34  C   UNL     1      10.922  11.276 -28.348  1.00  0.00     0.021 A 
ATOM     35  N   UNL     1      12.009  10.026 -30.062  1.00  0.00    -0.239 NA
ATOM     36  C   UNL     1      10.932  10.733 -29.631  1.00  0.00     0.113 A 
BRANCH  33  37
ATOM     37  N   UNL     1      14.213   9.098 -29.825  1.00  0.00    -0.383 N 
ATOM     38  H   UNL     1      14.360   8.079 -29.652  1.00  0.00     0.158 HD
ATOM     39  H   UNL     1      14.923   9.602 -30.400  1.00  0.00     0.158 HD
ENDBRANCH  33  37
ENDBRANCH  24  31
BRANCH  28  40
ATOM     40  C   UNL     1      19.548  10.087 -24.595  1.00  0.00     0.000 A 
ATOM     41  C   UNL     1      20.162  11.330 -24.835  1.00  0.00     0.010 A 
ATOM     42  C   UNL     1      20.331   9.021 -24.111  1.00  0.00     0.010 A 
ATOM     43  C   UNL     1      21.528  11.503 -24.594  1.00  0.00     0.001 A 
ATOM     44  C   UNL     1      21.698   9.200 -23.876  1.00  0.00     0.001 A 
ATOM     45  C   UNL     1      22.295  10.439 -24.116  1.00  0.00     0.000 A 
ENDBRANCH  28  40
ENDBRANCH  21  22
ENDBRANCH   1  16
TORSDOF 11
ENDMDL
MODEL 6
REMARK VINA RESULT:    -9.730      4.629     11.381
REMARK INTER + INTRA:         -17.346
REMARK INTER:                 -15.461
REMARK INTRA:                  -1.885
REMARK UNBOUND:                -1.928
REMARK SMILES Nc1ncccc1-c1nc2ccc(-c3ccccc3)nc2n1-c1ccc(CNCCc2ccc(C=O)c(O)c2)cc1
REMARK SMILES IDX 27 1 28 2 29 4 30 5 31 6 34 7 33 8 37 9 32 10 39 11 35 12
REMARK SMILES IDX 36 13 38 14 26 16 25 17 40 18 24 19 41 20 23 21 22 22 21 23
REMARK SMILES IDX 8 24 20 25 10 26 9 27 13 28 11 29 12 30 7 31 6 32 2 33 5 34
REMARK SMILES IDX 3 35 4 36 1 37 14 40 15 41 19 42 16 43 18 44 17 45
REMARK H PARENT 28 3 38 15 1 38 1 39
REMARK Flexibility Score: inf
ROOT
ATOM      1  C   UNL     1      13.697  10.627 -31.941  1.00  0.00     0.116 C 
ENDROOT
BRANCH   1   2
ATOM      2  N   UNL     1      14.375  10.321 -30.675  1.00  0.00    -0.312 NA
ATOM      3  H   UNL     1      14.746   9.343 -30.735  1.00  0.00     0.123 HD
BRANCH   2   4
ATOM      4  C   UNL     1      13.454  10.388 -29.529  1.00  0.00     0.086 C 
BRANCH   4   5
ATOM      5  C   UNL     1      13.669  11.695 -28.760  1.00  0.00     0.051 C 
BRANCH   5   6
ATOM      6  C   UNL     1      15.079  11.786 -28.230  1.00  0.00    -0.043 A 
ATOM      7  C   UNL     1      17.660  12.087 -27.134  1.00  0.00     0.056 A 
ATOM      8  C   UNL     1      16.742  11.189 -26.564  1.00  0.00     0.015 A 
ATOM      9  C   UNL     1      17.278  12.838 -28.261  1.00  0.00     0.126 A 
ATOM     10  C   UNL     1      15.463  11.040 -27.105  1.00  0.00     0.005 A 
ATOM     11  C   UNL     1      15.992  12.686 -28.800  1.00  0.00     0.050 A 
BRANCH   7  12
ATOM     12  C   UNL     1      19.006  12.250 -26.545  1.00  0.00     0.263 C 
ATOM     13  O   UNL     1      19.581  13.370 -26.542  1.00  0.00    -0.298 OA
ENDBRANCH   7  12
BRANCH   9  14
ATOM     14  O   UNL     1      18.169  13.741 -28.841  1.00  0.00    -0.507 OA
ATOM     15  H   UNL     1      18.749  13.485 -29.630  1.00  0.00     0.293 HD
ENDBRANCH   9  14
ENDBRANCH   5   6
ENDBRANCH   4   5
ENDBRANCH   2   4
ENDBRANCH   1   2
BRANCH   1  16
ATOM     16  C   UNL     1      14.668  11.151 -32.972  1.00  0.00    -0.034 A 
ATOM     17  C   UNL     1      15.092  12.489 -32.921  1.00  0.00     0.007 A 
ATOM     18  C   UNL     1      15.141  10.321 -34.003  1.00  0.00     0.007 A 
ATOM     19  C   UNL     1      15.999  12.978 -33.864  1.00  0.00     0.027 A 
ATOM     20  C   UNL     1      16.068  10.804 -34.930  1.00  0.00     0.027 A 
ATOM     21  C   UNL     1      16.500  12.135 -34.867  1.00  0.00     0.049 A 
BRANCH  21  22
ATOM     22  N   UNL     1      17.449  12.632 -35.823  1.00  0.00    -0.277 N 
ATOM     23  C   UNL     1      17.388  12.531 -37.157  1.00  0.00     0.165 A 
ATOM     24  C   UNL     1      18.657  13.221 -35.599  1.00  0.00     0.150 A 
ATOM     25  N   UNL     1      16.428  11.921 -37.893  1.00  0.00    -0.228 NA
ATOM     26  C   UNL     1      18.514  13.050 -37.705  1.00  0.00     0.109 A 
ATOM     27  N   UNL     1      19.341  13.502 -36.745  1.00  0.00    -0.226 NA
ATOM     28  C   UNL     1      16.569  11.858 -39.255  1.00  0.00     0.073 A 
ATOM     29  C   UNL     1      18.721  13.020 -39.078  1.00  0.00     0.034 A 
ATOM     30  C   UNL     1      17.726  12.417 -39.868  1.00  0.00     0.031 A 
BRANCH  24  31
ATOM     31  C   UNL     1      19.162  13.590 -34.261  1.00  0.00     0.060 A 
ATOM     32  C   UNL     1      19.261  12.602 -33.272  1.00  0.00     0.017 A 
ATOM     33  C   UNL     1      19.539  14.914 -33.938  1.00  0.00     0.134 A 
ATOM     34  C   UNL     1      19.720  12.928 -31.995  1.00  0.00     0.021 A 
ATOM     35  N   UNL     1      19.986  15.195 -32.683  1.00  0.00    -0.239 NA
ATOM     36  C   UNL     1      20.081  14.244 -31.717  1.00  0.00     0.113 A 
BRANCH  33  37
ATOM     37  N   UNL     1      19.511  15.965 -34.909  1.00  0.00    -0.383 N 
ATOM     38  H   UNL     1      20.381  16.363 -35.328  1.00  0.00     0.158 HD
ATOM     39  H   UNL     1      18.597  16.375 -35.203  1.00  0.00     0.158 HD
ENDBRANCH  33  37
ENDBRANCH  24  31
BRANCH  28  40
ATOM     40  C   UNL     1      15.533  11.169 -40.057  1.00  0.00     0.000 A 
ATOM     41  C   UNL     1      15.902  10.450 -41.208  1.00  0.00     0.010 A 
ATOM     42  C   UNL     1      14.176  11.199 -39.677  1.00  0.00     0.010 A 
ATOM     43  C   UNL     1      14.937   9.776 -41.962  1.00  0.00     0.001 A 
ATOM     44  C   UNL     1      13.215  10.526 -40.438  1.00  0.00     0.001 A 
ATOM     45  C   UNL     1      13.595   9.815 -41.578  1.00  0.00     0.000 A 
ENDBRANCH  28  40
ENDBRANCH  21  22
ENDBRANCH   1  16
TORSDOF 11
ENDMDL
MODEL 7
REMARK VINA RESULT:    -9.587      5.700     12.817
REMARK INTER + INTRA:         -17.120
REMARK INTER:                 -15.514
REMARK INTRA:                  -1.606
REMARK UNBOUND:                -1.928
REMARK SMILES Nc1ncccc1-c1nc2ccc(-c3ccccc3)nc2n1-c1ccc(CNCCc2ccc(C=O)c(O)c2)cc1
REMARK SMILES IDX 27 1 28 2 29 4 30 5 31 6 34 7 33 8 37 9 32 10 39 11 35 12
REMARK SMILES IDX 36 13 38 14 26 16 25 17 40 18 24 19 41 20 23 21 22 22 21 23
REMARK SMILES IDX 8 24 20 25 10 26 9 27 13 28 11 29 12 30 7 31 6 32 2 33 5 34
REMARK SMILES IDX 3 35 4 36 1 37 14 40 15 41 19 42 16 43 18 44 17 45
REMARK H PARENT 28 3 38 15 1 38 1 39
REMARK Flexibility Score: inf
ROOT
ATOM      1  C   UNL     1      15.169  11.266 -32.023  1.00  0.00     0.116 C 
ENDROOT
BRANCH   1   2
ATOM      2  N   UNL     1      15.789  10.085 -31.407  1.00  0.00    -0.312 NA
ATOM      3  H   UNL     1      15.162   9.263 -31.580  1.00  0.00     0.123 HD
BRANCH   2   4
ATOM      4  C   UNL     1      15.942  10.242 -29.952  1.00  0.00     0.086 C 
BRANCH   4   5
ATOM      5  C   UNL     1      14.798  11.095 -29.394  1.00  0.00     0.051 C 
BRANCH   5   6
ATOM      6  C   UNL     1      13.757  10.233 -28.725  1.00  0.00    -0.043 A 
ATOM      7  C   UNL     1      11.727   8.771 -27.422  1.00  0.00     0.056 A 
ATOM      8  C   UNL     1      11.602   9.112 -28.779  1.00  0.00     0.015 A 
ATOM      9  C   UNL     1      12.879   9.167 -26.716  1.00  0.00     0.126 A 
ATOM     10  C   UNL     1      12.606   9.838 -29.425  1.00  0.00     0.005 A 
ATOM     11  C   UNL     1      13.883   9.896 -27.369  1.00  0.00     0.050 A 
BRANCH   7  12
ATOM     12  C   UNL     1      10.653   8.017 -26.742  1.00  0.00     0.263 C 
ATOM     13  O   UNL     1      10.910   6.981 -26.073  1.00  0.00    -0.298 OA
ENDBRANCH   7  12
BRANCH   9  14
ATOM     14  O   UNL     1      13.023   8.845 -25.367  1.00  0.00    -0.507 OA
ATOM     15  H   UNL     1      13.105   9.560 -24.655  1.00  0.00     0.293 HD
ENDBRANCH   9  14
ENDBRANCH   5   6
ENDBRANCH   4   5
ENDBRANCH   2   4
ENDBRANCH   1   2
BRANCH   1  16
ATOM     16  C   UNL     1      15.838  11.618 -33.330  1.00  0.00    -0.034 A 
ATOM     17  C   UNL     1      15.968  10.647 -34.337  1.00  0.00     0.007 A 
ATOM     18  C   UNL     1      16.358  12.905 -33.548  1.00  0.00     0.007 A 
ATOM     19  C   UNL     1      16.574  10.968 -35.553  1.00  0.00     0.027 A 
ATOM     20  C   UNL     1      16.942  13.233 -34.776  1.00  0.00     0.027 A 
ATOM     21  C   UNL     1      17.056  12.266 -35.783  1.00  0.00     0.049 A 
BRANCH  21  22
ATOM     22  N   UNL     1      17.660  12.602 -37.041  1.00  0.00    -0.277 N 
ATOM     23  C   UNL     1      17.198  12.318 -38.265  1.00  0.00     0.165 A 
ATOM     24  C   UNL     1      18.868  13.185 -37.279  1.00  0.00     0.150 A 
ATOM     25  N   UNL     1      16.070  11.635 -38.583  1.00  0.00    -0.228 NA
ATOM     26  C   UNL     1      18.094  12.727 -39.197  1.00  0.00     0.109 A 
ATOM     27  N   UNL     1      19.166  13.287 -38.606  1.00  0.00    -0.226 NA
ATOM     28  C   UNL     1      15.792  11.380 -39.900  1.00  0.00     0.073 A 
ATOM     29  C   UNL     1      17.874  12.502 -40.549  1.00  0.00     0.034 A 
ATOM     30  C   UNL     1      16.697  11.820 -40.908  1.00  0.00     0.031 A 
BRANCH  24  31
ATOM     31  C   UNL     1      19.748  13.724 -36.223  1.00  0.00     0.060 A 
ATOM     32  C   UNL     1      20.589  12.849 -35.522  1.00  0.00     0.017 A 
ATOM     33  C   UNL     1      19.766  15.097 -35.885  1.00  0.00     0.134 A 
ATOM     34  C   UNL     1      21.419  13.329 -34.510  1.00  0.00     0.021 A 
ATOM     35  N   UNL     1      20.591  15.532 -34.894  1.00  0.00    -0.239 NA
ATOM     36  C   UNL     1      21.406  14.689 -34.206  1.00  0.00     0.113 A 
BRANCH  33  37
ATOM     37  N   UNL     1      18.972  16.057 -36.589  1.00  0.00    -0.383 N 
ATOM     38  H   UNL     1      19.003  17.077 -36.371  1.00  0.00     0.158 HD
ATOM     39  H   UNL     1      18.314  15.738 -37.336  1.00  0.00     0.158 HD
ENDBRANCH  33  37
ENDBRANCH  24  31
BRANCH  28  40
ATOM     40  C   UNL     1      14.574  10.613 -40.244  1.00  0.00     0.000 A 
ATOM     41  C   UNL     1      14.634   9.611 -41.230  1.00  0.00     0.010 A 
ATOM     42  C   UNL     1      13.351  10.851 -39.587  1.00  0.00     0.010 A 
ATOM     43  C   UNL     1      13.497   8.863 -41.550  1.00  0.00     0.001 A 
ATOM     44  C   UNL     1      12.217  10.102 -39.914  1.00  0.00     0.001 A 
ATOM     45  C   UNL     1      12.290   9.109 -40.893  1.00  0.00     0.000 A 
ENDBRANCH  28  40
ENDBRANCH  21  22
ENDBRANCH   1  16
TORSDOF 11
ENDMDL
