REMARK SMILES C[C@@H]1CN(CCOc2ccc([C@H]3Oc4ccc(O)cc4S[C@@H]3c3ccc(O)cc3)cc2)C[C@H]1C
REMARK SMILES IDX 11 1 10 2 9 3 8 4 31 5 30 6 12 7 13 8 14 9 20 10 15 11 22 12
REMARK SMILES IDX 21 13 19 14 16 15 17 16 23 17 24 18 29 19 25 20 28 21 26 22
REMARK SMILES IDX 27 23 18 25 7 27 6 28 5 29 4 30 3 31 32 32 2 33 33 34 1 35
REMARK SMILES IDX 34 36
REMARK H PARENT 27 24 18 26
REMARK Flexibility Score: inf
ROOT
ATOM      1  C   UNL     1       0.196   0.111   2.086  1.00  0.00    -0.006 A 
ATOM      2  C   UNL     1       0.914  -0.407   0.997  1.00  0.00     0.011 A 
ATOM      3  C   UNL     1       1.540   0.450   0.089  1.00  0.00     0.047 A 
ATOM      4  C   UNL     1       1.452   1.847   0.252  1.00  0.00     0.119 A 
ATOM      5  C   UNL     1       0.755   2.361   1.351  1.00  0.00     0.047 A 
ATOM      6  C   UNL     1       0.124   1.504   2.257  1.00  0.00     0.011 A 
ENDROOT
BRANCH   1   7
ATOM      7  C   UNL     1      -0.575  -0.816   2.998  1.00  0.00     0.221 C 
ATOM      8  O   UNL     1      -0.310  -0.458   4.357  1.00  0.00    -0.483 OA
ATOM      9  C   UNL     1      -1.159  -0.729   5.439  1.00  0.00     0.134 A 
ATOM     10  C   UNL     1      -2.407  -1.365   5.272  1.00  0.00     0.054 A 
ATOM     11  C   UNL     1      -0.776  -0.290   6.712  1.00  0.00     0.051 A 
ATOM     12  C   UNL     1      -2.090  -0.762   2.697  1.00  0.00     0.127 C 
ATOM     13  S   UNL     1      -2.914  -2.050   3.690  1.00  0.00    -0.110 SA
ATOM     14  C   UNL     1      -3.274  -1.494   6.365  1.00  0.00     0.065 A 
ATOM     15  C   UNL     1      -1.633  -0.446   7.805  1.00  0.00     0.050 A 
ATOM     16  C   UNL     1      -2.887  -1.040   7.634  1.00  0.00     0.116 A 
BRANCH  12  17
ATOM     17  C   UNL     1      -2.390  -0.977   1.226  1.00  0.00    -0.030 A 
ATOM     18  C   UNL     1      -2.935   0.069   0.461  1.00  0.00     0.009 A 
ATOM     19  C   UNL     1      -2.066  -2.190   0.589  1.00  0.00     0.009 A 
ATOM     20  C   UNL     1      -3.155  -0.095  -0.909  1.00  0.00     0.046 A 
ATOM     21  C   UNL     1      -2.286  -2.350  -0.782  1.00  0.00     0.046 A 
ATOM     22  C   UNL     1      -2.831  -1.302  -1.535  1.00  0.00     0.115 A 
BRANCH  22  23
ATOM     23  O   UNL     1      -3.050  -1.448  -2.902  1.00  0.00    -0.508 OA
ATOM     24  H   UNL     1      -2.814  -2.304  -3.390  1.00  0.00     0.293 HD
ENDBRANCH  22  23
ENDBRANCH  12  17
BRANCH  16  25
ATOM     25  O   UNL     1      -3.739  -1.175   8.728  1.00  0.00    -0.508 OA
ATOM     26  H   UNL     1      -4.654  -1.602   8.638  1.00  0.00     0.293 HD
ENDBRANCH  16  25
ENDBRANCH   1   7
BRANCH   4  27
ATOM     27  O   UNL     1       2.033   2.753  -0.651  1.00  0.00    -0.492 OA
BRANCH  27  28
ATOM     28  C   UNL     1       2.622   2.402  -1.903  1.00  0.00     0.245 C 
BRANCH  28  29
ATOM     29  C   UNL     1       1.537   2.028  -2.922  1.00  0.00     0.126 C 
BRANCH  29  30
ATOM     30  N   UNL     1       2.136   1.624  -4.210  1.00  0.00    -0.299 NA
ATOM     31  C   UNL     1       2.808   0.316  -4.134  1.00  0.00     0.088 C 
ATOM     32  C   UNL     1       1.123   1.522  -5.278  1.00  0.00     0.088 C 
ATOM     33  C   UNL     1       2.639  -0.341  -5.494  1.00  0.00     0.004 C 
ATOM     34  C   UNL     1       1.273   0.154  -5.951  1.00  0.00     0.004 C 
ATOM     35  C   UNL     1       2.735  -1.870  -5.423  1.00  0.00     0.009 C 
ATOM     36  C   UNL     1       1.150   0.233  -7.478  1.00  0.00     0.009 C 
ENDBRANCH  29  30
ENDBRANCH  28  29
ENDBRANCH  27  28
ENDBRANCH   4  27
TORSDOF 8
