MODEL 1
REMARK VINA RESULT:    -9.151      0.000      0.000
REMARK INTER + INTRA:         -13.995
REMARK INTER:                 -12.895
REMARK INTRA:                  -1.100
REMARK UNBOUND:                -1.100
REMARK SMILES C[C@@H]1CN(CCOc2ccc([C@H]3Oc4ccc(O)cc4S[C@@H]3c3ccc(O)cc3)cc2)C[C@H]1C
REMARK SMILES IDX 11 1 10 2 9 3 8 4 31 5 30 6 12 7 13 8 14 9 20 10 15 11 22 12
REMARK SMILES IDX 21 13 19 14 16 15 17 16 23 17 24 18 29 19 25 20 28 21 26 22
REMARK SMILES IDX 27 23 18 25 7 27 6 28 5 29 4 30 3 31 32 32 2 33 33 34 1 35
REMARK SMILES IDX 34 36
REMARK H PARENT 27 24 18 26
REMARK Flexibility Score: inf
ROOT
ATOM      1  C   UNL     1      31.525  -1.381  25.059  1.00  0.00    -0.006 A 
ATOM      2  C   UNL     1      32.160  -2.461  25.692  1.00  0.00     0.011 A 
ATOM      3  C   UNL     1      33.089  -3.241  25.000  1.00  0.00     0.047 A 
ATOM      4  C   UNL     1      33.396  -2.956  23.655  1.00  0.00     0.119 A 
ATOM      5  C   UNL     1      32.779  -1.865  23.033  1.00  0.00     0.047 A 
ATOM      6  C   UNL     1      31.845  -1.088  23.723  1.00  0.00     0.011 A 
ENDROOT
BRANCH   1   7
ATOM      7  C   UNL     1      30.436  -0.614  25.775  1.00  0.00     0.221 C 
ATOM      8  O   UNL     1      29.213  -1.349  25.684  1.00  0.00    -0.483 OA
ATOM      9  C   UNL     1      28.142  -1.239  26.582  1.00  0.00     0.134 A 
ATOM     10  C   UNL     1      28.193  -0.395  27.711  1.00  0.00     0.054 A 
ATOM     11  C   UNL     1      27.017  -2.047  26.378  1.00  0.00     0.051 A 
ATOM     12  C   UNL     1      30.816  -0.352  27.250  1.00  0.00     0.127 C 
ATOM     13  S   UNL     1      29.555   0.747  27.976  1.00  0.00    -0.110 SA
ATOM     14  C   UNL     1      27.151  -0.421  28.647  1.00  0.00     0.065 A 
ATOM     15  C   UNL     1      25.966  -2.048  27.300  1.00  0.00     0.050 A 
ATOM     16  C   UNL     1      26.033  -1.243  28.440  1.00  0.00     0.116 A 
BRANCH  12  17
ATOM     17  C   UNL     1      32.188   0.281  27.385  1.00  0.00    -0.030 A 
ATOM     18  C   UNL     1      32.518   1.410  26.614  1.00  0.00     0.009 A 
ATOM     19  C   UNL     1      33.120  -0.199  28.324  1.00  0.00     0.009 A 
ATOM     20  C   UNL     1      33.754   2.041  26.776  1.00  0.00     0.046 A 
ATOM     21  C   UNL     1      34.354   0.436  28.485  1.00  0.00     0.046 A 
ATOM     22  C   UNL     1      34.675   1.559  27.711  1.00  0.00     0.115 A 
BRANCH  22  23
ATOM     23  O   UNL     1      35.899   2.203  27.866  1.00  0.00    -0.508 OA
ATOM     24  H   UNL     1      36.708   1.946  27.313  1.00  0.00     0.293 HD
ENDBRANCH  22  23
ENDBRANCH  12  17
BRANCH  16  25
ATOM     25  O   UNL     1      24.987  -1.265  29.361  1.00  0.00    -0.508 OA
ATOM     26  H   UNL     1      24.270  -1.981  29.331  1.00  0.00     0.293 HD
ENDBRANCH  16  25
ENDBRANCH   1   7
BRANCH   4  27
ATOM     27  O   UNL     1      34.297  -3.729  22.903  1.00  0.00    -0.492 OA
BRANCH  27  28
ATOM     28  C   UNL     1      34.052  -4.232  21.590  1.00  0.00     0.245 C 
BRANCH  28  29
ATOM     29  C   UNL     1      34.972  -3.546  20.571  1.00  0.00     0.126 C 
BRANCH  29  30
ATOM     30  N   UNL     1      34.275  -2.434  19.893  1.00  0.00    -0.299 NA
ATOM     31  C   UNL     1      35.038  -1.904  18.750  1.00  0.00     0.088 C 
ATOM     32  C   UNL     1      32.958  -2.847  19.372  1.00  0.00     0.088 C 
ATOM     33  C   UNL     1      34.018  -1.448  17.719  1.00  0.00     0.004 C 
ATOM     34  C   UNL     1      32.876  -2.440  17.898  1.00  0.00     0.004 C 
ATOM     35  C   UNL     1      34.589  -1.434  16.295  1.00  0.00     0.009 C 
ATOM     36  C   UNL     1      31.511  -1.848  17.526  1.00  0.00     0.009 C 
ENDBRANCH  29  30
ENDBRANCH  28  29
ENDBRANCH  27  28
ENDBRANCH   4  27
TORSDOF 8
ENDMDL
MODEL 2
REMARK VINA RESULT:    -8.532      1.976      5.343
REMARK INTER + INTRA:         -13.123
REMARK INTER:                 -12.033
REMARK INTRA:                  -1.090
REMARK UNBOUND:                -1.100
REMARK SMILES C[C@@H]1CN(CCOc2ccc([C@H]3Oc4ccc(O)cc4S[C@@H]3c3ccc(O)cc3)cc2)C[C@H]1C
REMARK SMILES IDX 11 1 10 2 9 3 8 4 31 5 30 6 12 7 13 8 14 9 20 10 15 11 22 12
REMARK SMILES IDX 21 13 19 14 16 15 17 16 23 17 24 18 29 19 25 20 28 21 26 22
REMARK SMILES IDX 27 23 18 25 7 27 6 28 5 29 4 30 3 31 32 32 2 33 33 34 1 35
REMARK SMILES IDX 34 36
REMARK H PARENT 27 24 18 26
REMARK Flexibility Score: inf
ROOT
ATOM      1  C   UNL     1      32.258  -2.054  26.146  1.00  0.00    -0.006 A 
ATOM      2  C   UNL     1      31.980  -0.986  25.278  1.00  0.00     0.011 A 
ATOM      3  C   UNL     1      32.055  -1.159  23.894  1.00  0.00     0.047 A 
ATOM      4  C   UNL     1      32.419  -2.408  23.352  1.00  0.00     0.119 A 
ATOM      5  C   UNL     1      32.673  -3.477  24.218  1.00  0.00     0.047 A 
ATOM      6  C   UNL     1      32.603  -3.303  25.603  1.00  0.00     0.011 A 
ENDROOT
BRANCH   1   7
ATOM      7  C   UNL     1      32.288  -1.830  27.641  1.00  0.00     0.221 C 
ATOM      8  O   UNL     1      33.479  -1.114  27.980  1.00  0.00    -0.483 OA
ATOM      9  C   UNL     1      33.639  -0.320  29.124  1.00  0.00     0.134 A 
ATOM     10  C   UNL     1      32.595  -0.121  30.052  1.00  0.00     0.054 A 
ATOM     11  C   UNL     1      34.858   0.345  29.307  1.00  0.00     0.051 A 
ATOM     12  C   UNL     1      31.030  -1.070  28.117  1.00  0.00     0.127 C 
ATOM     13  S   UNL     1      31.047  -1.026  29.939  1.00  0.00    -0.110 SA
ATOM     14  C   UNL     1      32.765   0.785  31.107  1.00  0.00     0.065 A 
ATOM     15  C   UNL     1      35.032   1.227  30.377  1.00  0.00     0.050 A 
ATOM     16  C   UNL     1      33.985   1.456  31.275  1.00  0.00     0.116 A 
BRANCH  12  17
ATOM     17  C   UNL     1      29.749  -1.720  27.630  1.00  0.00    -0.030 A 
ATOM     18  C   UNL     1      29.357  -2.968  28.145  1.00  0.00     0.009 A 
ATOM     19  C   UNL     1      28.902  -1.062  26.719  1.00  0.00     0.009 A 
ATOM     20  C   UNL     1      28.147  -3.547  27.754  1.00  0.00     0.046 A 
ATOM     21  C   UNL     1      27.691  -1.643  26.331  1.00  0.00     0.046 A 
ATOM     22  C   UNL     1      27.310  -2.888  26.848  1.00  0.00     0.115 A 
BRANCH  22  23
ATOM     23  O   UNL     1      26.105  -3.475  26.473  1.00  0.00    -0.508 OA
ATOM     24  H   UNL     1      25.343  -3.593  27.131  1.00  0.00     0.293 HD
ENDBRANCH  22  23
ENDBRANCH  12  17
BRANCH  16  25
ATOM     25  O   UNL     1      34.165   2.350  32.328  1.00  0.00    -0.508 OA
ATOM     26  H   UNL     1      33.597   3.184  32.419  1.00  0.00     0.293 HD
ENDBRANCH  16  25
ENDBRANCH   1   7
BRANCH   4  27
ATOM     27  O   UNL     1      32.543  -2.626  21.970  1.00  0.00    -0.492 OA
BRANCH  27  28
ATOM     28  C   UNL     1      33.774  -2.835  21.278  1.00  0.00     0.245 C 
BRANCH  28  29
ATOM     29  C   UNL     1      33.721  -4.136  20.466  1.00  0.00     0.126 C 
BRANCH  29  30
ATOM     30  N   UNL     1      33.573  -3.855  19.024  1.00  0.00    -0.299 NA
ATOM     31  C   UNL     1      32.184  -3.538  18.650  1.00  0.00     0.088 C 
ATOM     32  C   UNL     1      34.400  -2.709  18.601  1.00  0.00     0.088 C 
ATOM     33  C   UNL     1      32.256  -2.536  17.510  1.00  0.00     0.004 C 
ATOM     34  C   UNL     1      33.504  -1.727  17.838  1.00  0.00     0.004 C 
ATOM     35  C   UNL     1      30.990  -1.677  17.403  1.00  0.00     0.009 C 
ATOM     36  C   UNL     1      34.188  -1.157  16.588  1.00  0.00     0.009 C 
ENDBRANCH  29  30
ENDBRANCH  28  29
ENDBRANCH  27  28
ENDBRANCH   4  27
TORSDOF 8
ENDMDL
MODEL 3
REMARK VINA RESULT:    -7.923      1.316      2.031
REMARK INTER + INTRA:         -12.265
REMARK INTER:                 -11.927
REMARK INTRA:                  -0.339
REMARK UNBOUND:                -1.100
REMARK SMILES C[C@@H]1CN(CCOc2ccc([C@H]3Oc4ccc(O)cc4S[C@@H]3c3ccc(O)cc3)cc2)C[C@H]1C
REMARK SMILES IDX 11 1 10 2 9 3 8 4 31 5 30 6 12 7 13 8 14 9 20 10 15 11 22 12
REMARK SMILES IDX 21 13 19 14 16 15 17 16 23 17 24 18 29 19 25 20 28 21 26 22
REMARK SMILES IDX 27 23 18 25 7 27 6 28 5 29 4 30 3 31 32 32 2 33 33 34 1 35
REMARK SMILES IDX 34 36
REMARK H PARENT 27 24 18 26
REMARK Flexibility Score: inf
ROOT
ATOM      1  C   UNL     1      31.503  -1.417  25.035  1.00  0.00    -0.006 A 
ATOM      2  C   UNL     1      32.110  -2.540  25.618  1.00  0.00     0.011 A 
ATOM      3  C   UNL     1      33.035  -3.299  24.898  1.00  0.00     0.047 A 
ATOM      4  C   UNL     1      33.365  -2.950  23.572  1.00  0.00     0.119 A 
ATOM      5  C   UNL     1      32.775  -1.818  23.001  1.00  0.00     0.047 A 
ATOM      6  C   UNL     1      31.845  -1.061  23.719  1.00  0.00     0.011 A 
ENDROOT
BRANCH   1   7
ATOM      7  C   UNL     1      30.418  -0.669  25.776  1.00  0.00     0.221 C 
ATOM      8  O   UNL     1      29.199  -1.412  25.691  1.00  0.00    -0.483 OA
ATOM      9  C   UNL     1      28.140  -1.323  26.605  1.00  0.00     0.134 A 
ATOM     10  C   UNL     1      28.200  -0.496  27.746  1.00  0.00     0.054 A 
ATOM     11  C   UNL     1      27.018  -2.137  26.405  1.00  0.00     0.051 A 
ATOM     12  C   UNL     1      30.816  -0.425  27.249  1.00  0.00     0.127 C 
ATOM     13  S   UNL     1      29.557   0.653  28.008  1.00  0.00    -0.110 SA
ATOM     14  C   UNL     1      27.171  -0.543  28.695  1.00  0.00     0.065 A 
ATOM     15  C   UNL     1      25.981  -2.160  27.341  1.00  0.00     0.050 A 
ATOM     16  C   UNL     1      26.057  -1.370  28.492  1.00  0.00     0.116 A 
BRANCH  12  17
ATOM     17  C   UNL     1      32.185   0.217  27.375  1.00  0.00    -0.030 A 
ATOM     18  C   UNL     1      32.483   1.381  26.646  1.00  0.00     0.009 A 
ATOM     19  C   UNL     1      33.147  -0.294  28.266  1.00  0.00     0.009 A 
ATOM     20  C   UNL     1      33.716   2.019  26.802  1.00  0.00     0.046 A 
ATOM     21  C   UNL     1      34.379   0.347  28.421  1.00  0.00     0.046 A 
ATOM     22  C   UNL     1      34.667   1.506  27.689  1.00  0.00     0.115 A 
BRANCH  22  23
ATOM     23  O   UNL     1      35.889   2.156  27.839  1.00  0.00    -0.508 OA
ATOM     24  H   UNL     1      35.943   3.127  28.125  1.00  0.00     0.293 HD
ENDBRANCH  22  23
ENDBRANCH  12  17
BRANCH  16  25
ATOM     25  O   UNL     1      25.024  -1.414  29.426  1.00  0.00    -0.508 OA
ATOM     26  H   UNL     1      24.707  -0.579  29.906  1.00  0.00     0.293 HD
ENDBRANCH  16  25
ENDBRANCH   1   7
BRANCH   4  27
ATOM     27  O   UNL     1      34.261  -3.699  22.793  1.00  0.00    -0.492 OA
BRANCH  27  28
ATOM     28  C   UNL     1      34.396  -3.603  21.375  1.00  0.00     0.245 C 
BRANCH  28  29
ATOM     29  C   UNL     1      34.740  -2.165  20.963  1.00  0.00     0.126 C 
BRANCH  29  30
ATOM     30  N   UNL     1      35.993  -2.122  20.183  1.00  0.00    -0.299 NA
ATOM     31  C   UNL     1      35.786  -1.635  18.809  1.00  0.00     0.088 C 
ATOM     32  C   UNL     1      36.995  -1.235  20.804  1.00  0.00     0.088 C 
ATOM     33  C   UNL     1      37.045  -0.880  18.419  1.00  0.00     0.004 C 
ATOM     34  C   UNL     1      37.500  -0.261  19.734  1.00  0.00     0.004 C 
ATOM     35  C   UNL     1      36.791   0.158  17.318  1.00  0.00     0.009 C 
ATOM     36  C   UNL     1      39.018  -0.052  19.799  1.00  0.00     0.009 C 
ENDBRANCH  29  30
ENDBRANCH  28  29
ENDBRANCH  27  28
ENDBRANCH   4  27
TORSDOF 8
ENDMDL
MODEL 4
REMARK VINA RESULT:    -7.629      0.993      1.890
REMARK INTER + INTRA:         -11.851
REMARK INTER:                 -11.666
REMARK INTRA:                  -0.184
REMARK UNBOUND:                -1.100
REMARK SMILES C[C@@H]1CN(CCOc2ccc([C@H]3Oc4ccc(O)cc4S[C@@H]3c3ccc(O)cc3)cc2)C[C@H]1C
REMARK SMILES IDX 11 1 10 2 9 3 8 4 31 5 30 6 12 7 13 8 14 9 20 10 15 11 22 12
REMARK SMILES IDX 21 13 19 14 16 15 17 16 23 17 24 18 29 19 25 20 28 21 26 22
REMARK SMILES IDX 27 23 18 25 7 27 6 28 5 29 4 30 3 31 32 32 2 33 33 34 1 35
REMARK SMILES IDX 34 36
REMARK H PARENT 27 24 18 26
REMARK Flexibility Score: inf
ROOT
ATOM      1  C   UNL     1      31.493  -1.374  25.190  1.00  0.00    -0.006 A 
ATOM      2  C   UNL     1      32.024  -2.542  25.759  1.00  0.00     0.011 A 
ATOM      3  C   UNL     1      32.983  -3.291  25.073  1.00  0.00     0.047 A 
ATOM      4  C   UNL     1      33.423  -2.885  23.797  1.00  0.00     0.119 A 
ATOM      5  C   UNL     1      32.909  -1.708  23.242  1.00  0.00     0.047 A 
ATOM      6  C   UNL     1      31.946  -0.962  23.926  1.00  0.00     0.011 A 
ENDROOT
BRANCH   1   7
ATOM      7  C   UNL     1      30.373  -0.632  25.885  1.00  0.00     0.221 C 
ATOM      8  O   UNL     1      29.175  -1.408  25.794  1.00  0.00    -0.483 OA
ATOM      9  C   UNL     1      28.092  -1.319  26.680  1.00  0.00     0.134 A 
ATOM     10  C   UNL     1      28.106  -0.458  27.797  1.00  0.00     0.054 A 
ATOM     11  C   UNL     1      26.996  -2.167  26.478  1.00  0.00     0.051 A 
ATOM     12  C   UNL     1      30.730  -0.336  27.359  1.00  0.00     0.127 C 
ATOM     13  S   UNL     1      29.427   0.731  28.057  1.00  0.00    -0.110 SA
ATOM     14  C   UNL     1      27.056  -0.504  28.724  1.00  0.00     0.065 A 
ATOM     15  C   UNL     1      25.938  -2.189  27.391  1.00  0.00     0.050 A 
ATOM     16  C   UNL     1      25.968  -1.365  28.520  1.00  0.00     0.116 A 
BRANCH  12  17
ATOM     17  C   UNL     1      32.079   0.343  27.497  1.00  0.00    -0.030 A 
ATOM     18  C   UNL     1      33.045  -0.187  28.371  1.00  0.00     0.009 A 
ATOM     19  C   UNL     1      32.413   1.461  26.709  1.00  0.00     0.009 A 
ATOM     20  C   UNL     1      34.314   0.391  28.458  1.00  0.00     0.046 A 
ATOM     21  C   UNL     1      33.684   2.035  26.798  1.00  0.00     0.046 A 
ATOM     22  C   UNL     1      34.639   1.501  27.673  1.00  0.00     0.115 A 
BRANCH  22  23
ATOM     23  O   UNL     1      35.909   2.062  27.766  1.00  0.00    -0.508 OA
ATOM     24  H   UNL     1      36.707   1.653  27.294  1.00  0.00     0.293 HD
ENDBRANCH  22  23
ENDBRANCH  12  17
BRANCH  16  25
ATOM     25  O   UNL     1      24.914  -1.408  29.431  1.00  0.00    -0.508 OA
ATOM     26  H   UNL     1      25.046  -1.162  30.405  1.00  0.00     0.293 HD
ENDBRANCH  16  25
ENDBRANCH   1   7
BRANCH   4  27
ATOM     27  O   UNL     1      34.359  -3.621  23.050  1.00  0.00    -0.492 OA
BRANCH  27  28
ATOM     28  C   UNL     1      34.275  -3.872  21.647  1.00  0.00     0.245 C 
BRANCH  28  29
ATOM     29  C   UNL     1      33.480  -2.762  20.948  1.00  0.00     0.126 C 
BRANCH  29  30
ATOM     30  N   UNL     1      32.512  -3.328  19.986  1.00  0.00    -0.299 NA
ATOM     31  C   UNL     1      31.130  -3.296  20.492  1.00  0.00     0.088 C 
ATOM     32  C   UNL     1      32.515  -2.591  18.707  1.00  0.00     0.088 C 
ATOM     33  C   UNL     1      30.228  -3.091  19.286  1.00  0.00     0.004 C 
ATOM     34  C   UNL     1      31.070  -2.213  18.369  1.00  0.00     0.004 C 
ATOM     35  C   UNL     1      28.882  -2.458  19.661  1.00  0.00     0.009 C 
ATOM     36  C   UNL     1      30.740  -2.417  16.885  1.00  0.00     0.009 C 
ENDBRANCH  29  30
ENDBRANCH  28  29
ENDBRANCH  27  28
ENDBRANCH   4  27
TORSDOF 8
ENDMDL
MODEL 5
REMARK VINA RESULT:    -7.078      2.091      5.298
REMARK INTER + INTRA:         -11.075
REMARK INTER:                 -10.029
REMARK INTRA:                  -1.045
REMARK UNBOUND:                -1.100
REMARK SMILES C[C@@H]1CN(CCOc2ccc([C@H]3Oc4ccc(O)cc4S[C@@H]3c3ccc(O)cc3)cc2)C[C@H]1C
REMARK SMILES IDX 11 1 10 2 9 3 8 4 31 5 30 6 12 7 13 8 14 9 20 10 15 11 22 12
REMARK SMILES IDX 21 13 19 14 16 15 17 16 23 17 24 18 29 19 25 20 28 21 26 22
REMARK SMILES IDX 27 23 18 25 7 27 6 28 5 29 4 30 3 31 32 32 2 33 33 34 1 35
REMARK SMILES IDX 34 36
REMARK H PARENT 27 24 18 26
REMARK Flexibility Score: inf
ROOT
ATOM      1  C   UNL     1      32.252  -2.051  26.127  1.00  0.00    -0.006 A 
ATOM      2  C   UNL     1      32.446  -3.340  25.607  1.00  0.00     0.011 A 
ATOM      3  C   UNL     1      32.302  -3.581  24.239  1.00  0.00     0.047 A 
ATOM      4  C   UNL     1      31.954  -2.532  23.364  1.00  0.00     0.119 A 
ATOM      5  C   UNL     1      31.783  -1.243  23.882  1.00  0.00     0.047 A 
ATOM      6  C   UNL     1      31.922  -1.003  25.252  1.00  0.00     0.011 A 
ENDROOT
BRANCH   1   7
ATOM      7  C   UNL     1      32.295  -1.821  27.621  1.00  0.00     0.221 C 
ATOM      8  O   UNL     1      33.503  -1.130  27.950  1.00  0.00    -0.483 OA
ATOM      9  C   UNL     1      33.688  -0.334  29.089  1.00  0.00     0.134 A 
ATOM     10  C   UNL     1      32.654  -0.106  30.021  1.00  0.00     0.054 A 
ATOM     11  C   UNL     1      34.922   0.304  29.262  1.00  0.00     0.051 A 
ATOM     12  C   UNL     1      31.057  -1.028  28.099  1.00  0.00     0.127 C 
ATOM     13  S   UNL     1      31.084  -0.974  29.921  1.00  0.00    -0.110 SA
ATOM     14  C   UNL     1      32.850   0.802  31.070  1.00  0.00     0.065 A 
ATOM     15  C   UNL     1      35.122   1.188  30.327  1.00  0.00     0.050 A 
ATOM     16  C   UNL     1      34.085   1.446  31.228  1.00  0.00     0.116 A 
BRANCH  12  17
ATOM     17  C   UNL     1      29.759  -1.651  27.622  1.00  0.00    -0.030 A 
ATOM     18  C   UNL     1      28.954  -0.971  26.692  1.00  0.00     0.009 A 
ATOM     19  C   UNL     1      29.375  -2.939  28.042  1.00  0.00     0.009 A 
ATOM     20  C   UNL     1      27.790  -1.562  26.196  1.00  0.00     0.046 A 
ATOM     21  C   UNL     1      28.210  -3.528  27.543  1.00  0.00     0.046 A 
ATOM     22  C   UNL     1      27.414  -2.841  26.617  1.00  0.00     0.115 A 
BRANCH  22  23
ATOM     23  O   UNL     1      26.255  -3.420  26.109  1.00  0.00    -0.508 OA
ATOM     24  H   UNL     1      25.500  -3.720  26.715  1.00  0.00     0.293 HD
ENDBRANCH  22  23
ENDBRANCH  12  17
BRANCH  16  25
ATOM     25  O   UNL     1      34.292   2.341  32.276  1.00  0.00    -0.508 OA
ATOM     26  H   UNL     1      34.805   2.074  33.108  1.00  0.00     0.293 HD
ENDBRANCH  16  25
ENDBRANCH   1   7
BRANCH   4  27
ATOM     27  O   UNL     1      31.762  -2.727  21.986  1.00  0.00    -0.492 OA
BRANCH  27  28
ATOM     28  C   UNL     1      32.630  -3.473  21.133  1.00  0.00     0.245 C 
BRANCH  28  29
ATOM     29  C   UNL     1      34.082  -3.005  21.300  1.00  0.00     0.126 C 
BRANCH  29  30
ATOM     30  N   UNL     1      34.344  -1.792  20.499  1.00  0.00    -0.299 NA
ATOM     31  C   UNL     1      35.640  -1.172  20.821  1.00  0.00     0.088 C 
ATOM     32  C   UNL     1      34.358  -2.084  19.052  1.00  0.00     0.088 C 
ATOM     33  C   UNL     1      36.161  -0.555  19.534  1.00  0.00     0.004 C 
ATOM     34  C   UNL     1      35.649  -1.508  18.461  1.00  0.00     0.004 C 
ATOM     35  C   UNL     1      37.687  -0.405  19.530  1.00  0.00     0.009 C 
ATOM     36  C   UNL     1      35.420  -0.816  17.111  1.00  0.00     0.009 C 
ENDBRANCH  29  30
ENDBRANCH  28  29
ENDBRANCH  27  28
ENDBRANCH   4  27
TORSDOF 8
ENDMDL
