MODEL 1
REMARK VINA RESULT:    -7.719      0.000      0.000
REMARK INTER + INTRA:         -12.815
REMARK INTER:                 -11.781
REMARK INTRA:                  -1.034
REMARK UNBOUND:                -1.034
REMARK SMILES COc1cc(/C=C/C(=O)CC(=O)/C=C/c2ccc(O)c(OC)c2)ccc1O
REMARK SMILES IDX 10 1 8 2 9 3 7 4 6 5 5 6 3 7 26 8 4 9 25 10 24 11 2 12 1 13
REMARK SMILES IDX 27 14 11 16 12 17 13 18 14 19 15 20 23 21 16 22 20 23 17 24
REMARK SMILES IDX 18 25 21 26 22 27 19 28
REMARK H PARENT 27 15 19 29
REMARK Flexibility Score: inf
ROOT
ATOM      1  C   UNL     1      33.962   0.252  29.298  1.00  0.00     0.160 C 
ENDROOT
BRANCH   1   2
ATOM      2  C   UNL     1      33.701  -1.098  28.697  1.00  0.00     0.163 C 
ATOM      3  O   UNL     1      33.927  -2.134  29.380  1.00  0.00    -0.294 OA
BRANCH   2   4
ATOM      4  C   UNL     1      33.248  -1.205  27.295  1.00  0.00     0.048 C 
ATOM      5  C   UNL     1      33.099  -2.385  26.678  1.00  0.00     0.012 C 
BRANCH   5   6
ATOM      6  C   UNL     1      32.757  -2.518  25.239  1.00  0.00    -0.022 A 
ATOM      7  C   UNL     1      33.007  -3.569  23.040  1.00  0.00     0.161 A 
ATOM      8  C   UNL     1      32.013  -2.716  22.529  1.00  0.00     0.157 A 
ATOM      9  C   UNL     1      33.381  -3.460  24.395  1.00  0.00     0.058 A 
ATOM     10  C   UNL     1      31.411  -1.768  23.361  1.00  0.00     0.051 A 
ATOM     11  C   UNL     1      31.782  -1.666  24.702  1.00  0.00     0.012 A 
BRANCH   7  12
ATOM     12  O   UNL     1      33.597  -4.510  22.180  1.00  0.00    -0.493 OA
ATOM     13  C   UNL     1      34.522  -4.193  21.145  1.00  0.00     0.278 C 
ENDBRANCH   7  12
BRANCH   8  14
ATOM     14  O   UNL     1      31.609  -2.796  21.197  1.00  0.00    -0.504 OA
ATOM     15  H   UNL     1      31.855  -2.089  20.514  1.00  0.00     0.293 HD
ENDBRANCH   8  14
ENDBRANCH   5   6
ENDBRANCH   2   4
ENDBRANCH   1   2
BRANCH   1  16
ATOM     16  C   UNL     1      32.805   0.659  30.165  1.00  0.00     0.163 C 
ATOM     17  O   UNL     1      33.020   1.322  31.216  1.00  0.00    -0.294 OA
BRANCH  16  18
ATOM     18  C   UNL     1      31.428   0.332  29.748  1.00  0.00     0.048 C 
ATOM     19  C   UNL     1      30.804   0.970  28.750  1.00  0.00     0.012 C 
BRANCH  19  20
ATOM     20  C   UNL     1      29.466   0.567  28.259  1.00  0.00    -0.022 A 
ATOM     21  C   UNL     1      29.155  -0.775  27.967  1.00  0.00     0.058 A 
ATOM     22  C   UNL     1      28.501   1.557  28.024  1.00  0.00     0.012 A 
ATOM     23  C   UNL     1      27.883  -1.130  27.475  1.00  0.00     0.161 A 
ATOM     24  C   UNL     1      27.237   1.211  27.542  1.00  0.00     0.051 A 
ATOM     25  C   UNL     1      26.922  -0.124  27.271  1.00  0.00     0.157 A 
BRANCH  23  26
ATOM     26  O   UNL     1      27.548  -2.462  27.177  1.00  0.00    -0.493 OA
ATOM     27  C   UNL     1      28.013  -3.594  27.904  1.00  0.00     0.278 C 
ENDBRANCH  23  26
BRANCH  25  28
ATOM     28  O   UNL     1      25.648  -0.431  26.791  1.00  0.00    -0.504 OA
ATOM     29  H   UNL     1      25.433  -0.442  25.802  1.00  0.00     0.293 HD
ENDBRANCH  25  28
ENDBRANCH  19  20
ENDBRANCH  16  18
ENDBRANCH   1  16
TORSDOF 10
ENDMDL
MODEL 2
REMARK VINA RESULT:    -7.669      4.790      9.017
REMARK INTER + INTRA:         -12.738
REMARK INTER:                 -11.392
REMARK INTRA:                  -1.346
REMARK UNBOUND:                -1.034
REMARK SMILES COc1cc(/C=C/C(=O)CC(=O)/C=C/c2ccc(O)c(OC)c2)ccc1O
REMARK SMILES IDX 10 1 8 2 9 3 7 4 6 5 5 6 3 7 26 8 4 9 25 10 24 11 2 12 1 13
REMARK SMILES IDX 27 14 11 16 12 17 13 18 14 19 15 20 23 21 16 22 20 23 17 24
REMARK SMILES IDX 18 25 21 26 22 27 19 28
REMARK H PARENT 27 15 19 29
REMARK Flexibility Score: inf
ROOT
ATOM      1  C   UNL     1      37.558   0.120  18.031  1.00  0.00     0.160 C 
ENDROOT
BRANCH   1   2
ATOM      2  C   UNL     1      36.280   0.162  17.246  1.00  0.00     0.163 C 
ATOM      3  O   UNL     1      35.930   1.239  16.690  1.00  0.00    -0.294 OA
BRANCH   2   4
ATOM      4  C   UNL     1      35.411  -1.031  17.186  1.00  0.00     0.048 C 
ATOM      5  C   UNL     1      34.077  -0.952  17.282  1.00  0.00     0.012 C 
BRANCH   5   6
ATOM      6  C   UNL     1      33.190  -2.142  17.341  1.00  0.00    -0.022 A 
ATOM      7  C   UNL     1      31.180  -3.311  18.114  1.00  0.00     0.161 A 
ATOM      8  C   UNL     1      31.556  -4.436  17.359  1.00  0.00     0.157 A 
ATOM      9  C   UNL     1      32.007  -2.168  18.107  1.00  0.00     0.058 A 
ATOM     10  C   UNL     1      32.740  -4.417  16.619  1.00  0.00     0.051 A 
ATOM     11  C   UNL     1      33.553  -3.283  16.612  1.00  0.00     0.012 A 
BRANCH   7  12
ATOM     12  O   UNL     1      29.986  -3.360  18.851  1.00  0.00    -0.493 OA
ATOM     13  C   UNL     1      29.870  -3.018  20.229  1.00  0.00     0.278 C 
ENDBRANCH   7  12
BRANCH   8  14
ATOM     14  O   UNL     1      30.763  -5.583  17.333  1.00  0.00    -0.504 OA
ATOM     15  H   UNL     1      31.011  -6.399  16.785  1.00  0.00     0.293 HD
ENDBRANCH   8  14
ENDBRANCH   5   6
ENDBRANCH   2   4
ENDBRANCH   1   2
BRANCH   1  16
ATOM     16  C   UNL     1      37.256   0.145  19.502  1.00  0.00     0.163 C 
ATOM     17  O   UNL     1      37.981   0.830  20.273  1.00  0.00    -0.294 OA
BRANCH  16  18
ATOM     18  C   UNL     1      36.080  -0.582  20.020  1.00  0.00     0.048 C 
ATOM     19  C   UNL     1      36.084  -1.903  20.235  1.00  0.00     0.012 C 
BRANCH  19  20
ATOM     20  C   UNL     1      34.943  -2.613  20.860  1.00  0.00    -0.022 A 
ATOM     21  C   UNL     1      34.133  -2.001  21.836  1.00  0.00     0.058 A 
ATOM     22  C   UNL     1      34.700  -3.949  20.512  1.00  0.00     0.012 A 
ATOM     23  C   UNL     1      33.070  -2.706  22.436  1.00  0.00     0.161 A 
ATOM     24  C   UNL     1      33.646  -4.651  21.098  1.00  0.00     0.051 A 
ATOM     25  C   UNL     1      32.828  -4.037  22.053  1.00  0.00     0.157 A 
BRANCH  23  26
ATOM     26  O   UNL     1      32.247  -2.119  23.411  1.00  0.00    -0.493 OA
ATOM     27  C   UNL     1      32.535  -2.096  24.805  1.00  0.00     0.278 C 
ENDBRANCH  23  26
BRANCH  25  28
ATOM     28  O   UNL     1      31.784  -4.771  22.616  1.00  0.00    -0.504 OA
ATOM     29  H   UNL     1      30.830  -4.431  22.625  1.00  0.00     0.293 HD
ENDBRANCH  25  28
ENDBRANCH  19  20
ENDBRANCH  16  18
ENDBRANCH   1  16
TORSDOF 10
ENDMDL
MODEL 3
REMARK VINA RESULT:    -7.629      3.009      5.084
REMARK INTER + INTRA:         -12.677
REMARK INTER:                 -12.166
REMARK INTRA:                  -0.510
REMARK UNBOUND:                -1.034
REMARK SMILES COc1cc(/C=C/C(=O)CC(=O)/C=C/c2ccc(O)c(OC)c2)ccc1O
REMARK SMILES IDX 10 1 8 2 9 3 7 4 6 5 5 6 3 7 26 8 4 9 25 10 24 11 2 12 1 13
REMARK SMILES IDX 27 14 11 16 12 17 13 18 14 19 15 20 23 21 16 22 20 23 17 24
REMARK SMILES IDX 18 25 21 26 22 27 19 28
REMARK H PARENT 27 15 19 29
REMARK Flexibility Score: inf
ROOT
ATOM      1  C   UNL     1      33.551  -2.730  24.739  1.00  0.00     0.160 C 
ENDROOT
BRANCH   1   2
ATOM      2  C   UNL     1      32.952  -3.251  23.465  1.00  0.00     0.163 C 
ATOM      3  O   UNL     1      32.291  -4.325  23.487  1.00  0.00    -0.294 OA
BRANCH   2   4
ATOM      4  C   UNL     1      33.196  -2.543  22.192  1.00  0.00     0.048 C 
ATOM      5  C   UNL     1      33.835  -3.117  21.164  1.00  0.00     0.012 C 
BRANCH   5   6
ATOM      6  C   UNL     1      34.195  -2.393  19.919  1.00  0.00    -0.022 A 
ATOM      7  C   UNL     1      35.684  -0.969  18.593  1.00  0.00     0.161 A 
ATOM      8  C   UNL     1      34.808  -1.086  17.500  1.00  0.00     0.157 A 
ATOM      9  C   UNL     1      35.368  -1.620  19.804  1.00  0.00     0.058 A 
ATOM     10  C   UNL     1      33.635  -1.835  17.621  1.00  0.00     0.051 A 
ATOM     11  C   UNL     1      33.328  -2.480  18.820  1.00  0.00     0.012 A 
BRANCH   7  12
ATOM     12  O   UNL     1      36.854  -0.207  18.442  1.00  0.00    -0.493 OA
ATOM     13  C   UNL     1      37.785   0.063  19.486  1.00  0.00     0.278 C 
ENDBRANCH   7  12
BRANCH   8  14
ATOM     14  O   UNL     1      35.087  -0.465  16.282  1.00  0.00    -0.504 OA
ATOM     15  H   UNL     1      35.025   0.539  16.161  1.00  0.00     0.293 HD
ENDBRANCH   8  14
ENDBRANCH   5   6
ENDBRANCH   2   4
ENDBRANCH   1   2
BRANCH   1  16
ATOM     16  C   UNL     1      32.723  -3.171  25.912  1.00  0.00     0.163 C 
ATOM     17  O   UNL     1      33.224  -3.948  26.769  1.00  0.00    -0.294 OA
BRANCH  16  18
ATOM     18  C   UNL     1      31.355  -2.643  26.082  1.00  0.00     0.048 C 
ATOM     19  C   UNL     1      30.627  -2.863  27.183  1.00  0.00     0.012 C 
BRANCH  19  20
ATOM     20  C   UNL     1      29.299  -2.241  27.399  1.00  0.00    -0.022 A 
ATOM     21  C   UNL     1      29.138  -0.844  27.473  1.00  0.00     0.058 A 
ATOM     22  C   UNL     1      28.184  -3.067  27.593  1.00  0.00     0.012 A 
ATOM     23  C   UNL     1      27.869  -0.276  27.706  1.00  0.00     0.161 A 
ATOM     24  C   UNL     1      26.924  -2.511  27.819  1.00  0.00     0.051 A 
ATOM     25  C   UNL     1      26.759  -1.123  27.873  1.00  0.00     0.157 A 
BRANCH  23  26
ATOM     26  O   UNL     1      27.681   1.114  27.784  1.00  0.00    -0.493 OA
ATOM     27  C   UNL     1      28.702   2.051  28.113  1.00  0.00     0.278 C 
ENDBRANCH  23  26
BRANCH  25  28
ATOM     28  O   UNL     1      25.484  -0.604  28.100  1.00  0.00    -0.504 OA
ATOM     29  H   UNL     1      25.282   0.006  28.882  1.00  0.00     0.293 HD
ENDBRANCH  25  28
ENDBRANCH  19  20
ENDBRANCH  16  18
ENDBRANCH   1  16
TORSDOF 10
ENDMDL
MODEL 4
REMARK VINA RESULT:    -7.593      3.147      9.308
REMARK INTER + INTRA:         -12.623
REMARK INTER:                 -12.164
REMARK INTRA:                  -0.459
REMARK UNBOUND:                -1.034
REMARK SMILES COc1cc(/C=C/C(=O)CC(=O)/C=C/c2ccc(O)c(OC)c2)ccc1O
REMARK SMILES IDX 10 1 8 2 9 3 7 4 6 5 5 6 3 7 26 8 4 9 25 10 24 11 2 12 1 13
REMARK SMILES IDX 27 14 11 16 12 17 13 18 14 19 15 20 23 21 16 22 20 23 17 24
REMARK SMILES IDX 18 25 21 26 22 27 19 28
REMARK H PARENT 27 15 19 29
REMARK Flexibility Score: inf
ROOT
ATOM      1  C   UNL     1      33.542  -2.747  24.482  1.00  0.00     0.160 C 
ENDROOT
BRANCH   1   2
ATOM      2  C   UNL     1      32.762  -3.163  25.696  1.00  0.00     0.163 C 
ATOM      3  O   UNL     1      33.244  -4.032  26.473  1.00  0.00    -0.294 OA
BRANCH   2   4
ATOM      4  C   UNL     1      31.415  -2.606  25.933  1.00  0.00     0.048 C 
ATOM      5  C   UNL     1      30.840  -2.612  27.143  1.00  0.00     0.012 C 
BRANCH   5   6
ATOM      6  C   UNL     1      29.445  -2.165  27.388  1.00  0.00    -0.022 A 
ATOM      7  C   UNL     1      27.740  -0.424  27.643  1.00  0.00     0.161 A 
ATOM      8  C   UNL     1      26.764  -1.420  27.823  1.00  0.00     0.157 A 
ATOM      9  C   UNL     1      29.082  -0.804  27.434  1.00  0.00     0.058 A 
ATOM     10  C   UNL     1      27.128  -2.768  27.798  1.00  0.00     0.051 A 
ATOM     11  C   UNL     1      28.457  -3.139  27.587  1.00  0.00     0.012 A 
BRANCH   7  12
ATOM     12  O   UNL     1      27.345   0.923  27.675  1.00  0.00    -0.493 OA
ATOM     13  C   UNL     1      28.212   2.015  27.966  1.00  0.00     0.278 C 
ENDBRANCH   7  12
BRANCH   8  14
ATOM     14  O   UNL     1      25.424  -1.087  28.025  1.00  0.00    -0.504 OA
ATOM     15  H   UNL     1      24.722  -1.211  27.305  1.00  0.00     0.293 HD
ENDBRANCH   8  14
ENDBRANCH   5   6
ENDBRANCH   2   4
ENDBRANCH   1   2
BRANCH   1  16
ATOM     16  C   UNL     1      33.038  -3.483  23.274  1.00  0.00     0.163 C 
ATOM     17  O   UNL     1      32.121  -4.339  23.405  1.00  0.00    -0.294 OA
BRANCH  16  18
ATOM     18  C   UNL     1      33.578  -3.156  21.940  1.00  0.00     0.048 C 
ATOM     19  C   UNL     1      34.374  -2.103  21.721  1.00  0.00     0.012 C 
BRANCH  19  20
ATOM     20  C   UNL     1      35.005  -1.840  20.406  1.00  0.00    -0.022 A 
ATOM     21  C   UNL     1      36.263  -1.216  20.298  1.00  0.00     0.058 A 
ATOM     22  C   UNL     1      34.305  -2.168  19.237  1.00  0.00     0.012 A 
ATOM     23  C   UNL     1      36.831  -0.951  19.036  1.00  0.00     0.161 A 
ATOM     24  C   UNL     1      34.863  -1.914  17.984  1.00  0.00     0.051 A 
ATOM     25  C   UNL     1      36.121  -1.313  17.876  1.00  0.00     0.157 A 
BRANCH  23  26
ATOM     26  O   UNL     1      38.084  -0.331  18.900  1.00  0.00    -0.493 OA
ATOM     27  C   UNL     1      38.799   0.287  19.965  1.00  0.00     0.278 C 
ENDBRANCH  23  26
BRANCH  25  28
ATOM     28  O   UNL     1      36.648  -1.075  16.606  1.00  0.00    -0.504 OA
ATOM     29  H   UNL     1      36.657  -0.152  16.190  1.00  0.00     0.293 HD
ENDBRANCH  25  28
ENDBRANCH  19  20
ENDBRANCH  16  18
ENDBRANCH   1  16
TORSDOF 10
ENDMDL
MODEL 5
REMARK VINA RESULT:    -7.564      1.946      7.528
REMARK INTER + INTRA:         -12.578
REMARK INTER:                 -11.991
REMARK INTRA:                  -0.587
REMARK UNBOUND:                -1.034
REMARK SMILES COc1cc(/C=C/C(=O)CC(=O)/C=C/c2ccc(O)c(OC)c2)ccc1O
REMARK SMILES IDX 10 1 8 2 9 3 7 4 6 5 5 6 3 7 26 8 4 9 25 10 24 11 2 12 1 13
REMARK SMILES IDX 27 14 11 16 12 17 13 18 14 19 15 20 23 21 16 22 20 23 17 24
REMARK SMILES IDX 18 25 21 26 22 27 19 28
REMARK H PARENT 27 15 19 29
REMARK Flexibility Score: inf
ROOT
ATOM      1  C   UNL     1      33.888  -1.929  26.895  1.00  0.00     0.160 C 
ENDROOT
BRANCH   1   2
ATOM      2  C   UNL     1      33.072  -1.872  28.153  1.00  0.00     0.163 C 
ATOM      3  O   UNL     1      33.611  -2.166  29.254  1.00  0.00    -0.294 OA
BRANCH   2   4
ATOM      4  C   UNL     1      31.634  -1.539  28.084  1.00  0.00     0.048 C 
ATOM      5  C   UNL     1      30.679  -2.478  28.128  1.00  0.00     0.012 C 
BRANCH   5   6
ATOM      6  C   UNL     1      29.235  -2.183  27.946  1.00  0.00    -0.022 A 
ATOM      7  C   UNL     1      27.356  -0.635  27.674  1.00  0.00     0.161 A 
ATOM      8  C   UNL     1      26.481  -1.730  27.562  1.00  0.00     0.157 A 
ATOM      9  C   UNL     1      28.732  -0.869  27.874  1.00  0.00     0.058 A 
ATOM     10  C   UNL     1      26.977  -3.032  27.655  1.00  0.00     0.051 A 
ATOM     11  C   UNL     1      28.341  -3.259  27.849  1.00  0.00     0.012 A 
BRANCH   7  12
ATOM     12  O   UNL     1      26.829   0.664  27.580  1.00  0.00    -0.493 OA
ATOM     13  C   UNL     1      27.595   1.859  27.690  1.00  0.00     0.278 C 
ENDBRANCH   7  12
BRANCH   8  14
ATOM     14  O   UNL     1      25.115  -1.542  27.357  1.00  0.00    -0.504 OA
ATOM     15  H   UNL     1      24.479  -1.326  28.115  1.00  0.00     0.293 HD
ENDBRANCH   8  14
ENDBRANCH   5   6
ENDBRANCH   2   4
ENDBRANCH   1   2
BRANCH   1  16
ATOM     16  C   UNL     1      33.517  -3.147  26.099  1.00  0.00     0.163 C 
ATOM     17  O   UNL     1      33.029  -4.149  26.688  1.00  0.00    -0.294 OA
BRANCH  16  18
ATOM     18  C   UNL     1      33.669  -3.136  24.631  1.00  0.00     0.048 C 
ATOM     19  C   UNL     1      32.624  -3.106  23.796  1.00  0.00     0.012 C 
BRANCH  19  20
ATOM     20  C   UNL     1      32.779  -2.982  22.327  1.00  0.00    -0.022 A 
ATOM     21  C   UNL     1      31.678  -3.073  21.454  1.00  0.00     0.058 A 
ATOM     22  C   UNL     1      34.064  -2.828  21.789  1.00  0.00     0.012 A 
ATOM     23  C   UNL     1      31.854  -2.979  20.059  1.00  0.00     0.161 A 
ATOM     24  C   UNL     1      34.246  -2.728  20.409  1.00  0.00     0.051 A 
ATOM     25  C   UNL     1      33.150  -2.799  19.543  1.00  0.00     0.157 A 
BRANCH  23  26
ATOM     26  O   UNL     1      30.773  -3.066  19.166  1.00  0.00    -0.493 OA
ATOM     27  C   UNL     1      29.425  -3.313  19.552  1.00  0.00     0.278 C 
ENDBRANCH  23  26
BRANCH  25  28
ATOM     28  O   UNL     1      33.370  -2.695  18.169  1.00  0.00    -0.504 OA
ATOM     29  H   UNL     1      32.639  -2.870  17.491  1.00  0.00     0.293 HD
ENDBRANCH  25  28
ENDBRANCH  19  20
ENDBRANCH  16  18
ENDBRANCH   1  16
TORSDOF 10
ENDMDL
MODEL 6
REMARK VINA RESULT:    -7.507      3.434      9.506
REMARK INTER + INTRA:         -12.491
REMARK INTER:                 -11.715
REMARK INTRA:                  -0.776
REMARK UNBOUND:                -1.034
REMARK SMILES COc1cc(/C=C/C(=O)CC(=O)/C=C/c2ccc(O)c(OC)c2)ccc1O
REMARK SMILES IDX 10 1 8 2 9 3 7 4 6 5 5 6 3 7 26 8 4 9 25 10 24 11 2 12 1 13
REMARK SMILES IDX 27 14 11 16 12 17 13 18 14 19 15 20 23 21 16 22 20 23 17 24
REMARK SMILES IDX 18 25 21 26 22 27 19 28
REMARK H PARENT 27 15 19 29
REMARK Flexibility Score: inf
ROOT
ATOM      1  C   UNL     1      32.495  -4.047  23.095  1.00  0.00     0.160 C 
ENDROOT
BRANCH   1   2
ATOM      2  C   UNL     1      32.961  -3.299  24.310  1.00  0.00     0.163 C 
ATOM      3  O   UNL     1      34.027  -3.654  24.883  1.00  0.00    -0.294 OA
BRANCH   2   4
ATOM      4  C   UNL     1      32.138  -2.204  24.862  1.00  0.00     0.048 C 
ATOM      5  C   UNL     1      32.429  -1.605  26.024  1.00  0.00     0.012 C 
BRANCH   5   6
ATOM      6  C   UNL     1      31.557  -0.583  26.658  1.00  0.00    -0.022 A 
ATOM      7  C   UNL     1      29.386   0.496  27.013  1.00  0.00     0.161 A 
ATOM      8  C   UNL     1      29.981   1.368  27.940  1.00  0.00     0.157 A 
ATOM      9  C   UNL     1      30.182  -0.474  26.368  1.00  0.00     0.058 A 
ATOM     10  C   UNL     1      31.348   1.275  28.211  1.00  0.00     0.051 A 
ATOM     11  C   UNL     1      32.131   0.311  27.573  1.00  0.00     0.012 A 
BRANCH   7  12
ATOM     12  O   UNL     1      28.010   0.615  26.759  1.00  0.00    -0.493 OA
ATOM     13  C   UNL     1      26.998  -0.156  27.399  1.00  0.00     0.278 C 
ENDBRANCH   7  12
BRANCH   8  14
ATOM     14  O   UNL     1      29.228   2.336  28.605  1.00  0.00    -0.504 OA
ATOM     15  H   UNL     1      29.638   2.971  29.279  1.00  0.00     0.293 HD
ENDBRANCH   8  14
ENDBRANCH   5   6
ENDBRANCH   2   4
ENDBRANCH   1   2
BRANCH   1  16
ATOM     16  C   UNL     1      32.535  -3.146  21.894  1.00  0.00     0.163 C 
ATOM     17  O   UNL     1      31.473  -2.916  21.254  1.00  0.00    -0.294 OA
BRANCH  16  18
ATOM     18  C   UNL     1      33.802  -2.494  21.510  1.00  0.00     0.048 C 
ATOM     19  C   UNL     1      34.292  -2.541  20.266  1.00  0.00     0.012 C 
BRANCH  19  20
ATOM     20  C   UNL     1      35.504  -1.793  19.856  1.00  0.00    -0.022 A 
ATOM     21  C   UNL     1      36.744  -1.979  20.498  1.00  0.00     0.058 A 
ATOM     22  C   UNL     1      35.399  -0.832  18.841  1.00  0.00     0.012 A 
ATOM     23  C   UNL     1      37.876  -1.236  20.108  1.00  0.00     0.161 A 
ATOM     24  C   UNL     1      36.518  -0.096  18.446  1.00  0.00     0.051 A 
ATOM     25  C   UNL     1      37.754  -0.295  19.070  1.00  0.00     0.157 A 
BRANCH  23  26
ATOM     26  O   UNL     1      39.124  -1.403  20.731  1.00  0.00    -0.493 OA
ATOM     27  C   UNL     1      40.061  -2.423  20.401  1.00  0.00     0.278 C 
ENDBRANCH  23  26
BRANCH  25  28
ATOM     28  O   UNL     1      38.850   0.458  18.648  1.00  0.00    -0.504 OA
ATOM     29  H   UNL     1      38.783   1.451  18.464  1.00  0.00     0.293 HD
ENDBRANCH  25  28
ENDBRANCH  19  20
ENDBRANCH  16  18
ENDBRANCH   1  16
TORSDOF 10
ENDMDL
MODEL 7
REMARK VINA RESULT:    -7.483      3.543      9.595
REMARK INTER + INTRA:         -12.454
REMARK INTER:                 -11.680
REMARK INTRA:                  -0.774
REMARK UNBOUND:                -1.034
REMARK SMILES COc1cc(/C=C/C(=O)CC(=O)/C=C/c2ccc(O)c(OC)c2)ccc1O
REMARK SMILES IDX 10 1 8 2 9 3 7 4 6 5 5 6 3 7 26 8 4 9 25 10 24 11 2 12 1 13
REMARK SMILES IDX 27 14 11 16 12 17 13 18 14 19 15 20 23 21 16 22 20 23 17 24
REMARK SMILES IDX 18 25 21 26 22 27 19 28
REMARK H PARENT 27 15 19 29
REMARK Flexibility Score: inf
ROOT
ATOM      1  C   UNL     1      32.477  -4.045  23.240  1.00  0.00     0.160 C 
ENDROOT
BRANCH   1   2
ATOM      2  C   UNL     1      33.024  -3.306  24.427  1.00  0.00     0.163 C 
ATOM      3  O   UNL     1      34.111  -3.683  24.943  1.00  0.00    -0.294 OA
BRANCH   2   4
ATOM      4  C   UNL     1      32.256  -2.192  25.019  1.00  0.00     0.048 C 
ATOM      5  C   UNL     1      31.527  -2.337  26.134  1.00  0.00     0.012 C 
BRANCH   5   6
ATOM      6  C   UNL     1      30.655  -1.269  26.685  1.00  0.00    -0.022 A 
ATOM      7  C   UNL     1      30.146   0.487  28.316  1.00  0.00     0.161 A 
ATOM      8  C   UNL     1      28.950   0.764  27.632  1.00  0.00     0.157 A 
ATOM      9  C   UNL     1      30.992  -0.537  27.842  1.00  0.00     0.058 A 
ATOM     10  C   UNL     1      28.606   0.023  26.498  1.00  0.00     0.051 A 
ATOM     11  C   UNL     1      29.448  -0.987  26.030  1.00  0.00     0.012 A 
BRANCH   7  12
ATOM     12  O   UNL     1      30.464   1.246  29.455  1.00  0.00    -0.493 OA
ATOM     13  C   UNL     1      31.765   1.738  29.763  1.00  0.00     0.278 C 
ENDBRANCH   7  12
BRANCH   8  14
ATOM     14  O   UNL     1      28.089   1.773  28.064  1.00  0.00    -0.504 OA
ATOM     15  H   UNL     1      27.470   2.263  27.429  1.00  0.00     0.293 HD
ENDBRANCH   8  14
ENDBRANCH   5   6
ENDBRANCH   2   4
ENDBRANCH   1   2
BRANCH   1  16
ATOM     16  C   UNL     1      32.471  -3.147  22.036  1.00  0.00     0.163 C 
ATOM     17  O   UNL     1      31.379  -2.891  21.459  1.00  0.00    -0.294 OA
BRANCH  16  18
ATOM     18  C   UNL     1      33.729  -2.526  21.579  1.00  0.00     0.048 C 
ATOM     19  C   UNL     1      34.084  -2.477  20.290  1.00  0.00     0.012 C 
BRANCH  19  20
ATOM     20  C   UNL     1      35.291  -1.755  19.822  1.00  0.00    -0.022 A 
ATOM     21  C   UNL     1      35.520  -1.500  18.456  1.00  0.00     0.058 A 
ATOM     22  C   UNL     1      36.258  -1.367  20.760  1.00  0.00     0.012 A 
ATOM     23  C   UNL     1      36.689  -0.836  18.033  1.00  0.00     0.161 A 
ATOM     24  C   UNL     1      37.415  -0.704  20.348  1.00  0.00     0.051 A 
ATOM     25  C   UNL     1      37.634  -0.433  18.993  1.00  0.00     0.157 A 
BRANCH  23  26
ATOM     26  O   UNL     1      36.941  -0.569  16.677  1.00  0.00    -0.493 OA
ATOM     27  C   UNL     1      36.454   0.569  15.973  1.00  0.00     0.278 C 
ENDBRANCH  23  26
BRANCH  25  28
ATOM     28  O   UNL     1      38.802   0.233  18.620  1.00  0.00    -0.504 OA
ATOM     29  H   UNL     1      39.699   0.024  19.039  1.00  0.00     0.293 HD
ENDBRANCH  25  28
ENDBRANCH  19  20
ENDBRANCH  16  18
ENDBRANCH   1  16
TORSDOF 10
ENDMDL
MODEL 8
REMARK VINA RESULT:    -7.335      3.307      6.608
REMARK INTER + INTRA:         -12.228
REMARK INTER:                 -11.780
REMARK INTRA:                  -0.448
REMARK UNBOUND:                -1.034
REMARK SMILES COc1cc(/C=C/C(=O)CC(=O)/C=C/c2ccc(O)c(OC)c2)ccc1O
REMARK SMILES IDX 10 1 8 2 9 3 7 4 6 5 5 6 3 7 26 8 4 9 25 10 24 11 2 12 1 13
REMARK SMILES IDX 27 14 11 16 12 17 13 18 14 19 15 20 23 21 16 22 20 23 17 24
REMARK SMILES IDX 18 25 21 26 22 27 19 28
REMARK H PARENT 27 15 19 29
REMARK Flexibility Score: inf
ROOT
ATOM      1  C   UNL     1      31.957  -2.388  23.270  1.00  0.00     0.160 C 
ENDROOT
BRANCH   1   2
ATOM      2  C   UNL     1      32.342  -3.349  22.184  1.00  0.00     0.163 C 
ATOM      3  O   UNL     1      31.990  -4.557  22.273  1.00  0.00    -0.294 OA
BRANCH   2   4
ATOM      4  C   UNL     1      33.183  -2.891  21.059  1.00  0.00     0.048 C 
ATOM      5  C   UNL     1      34.408  -2.379  21.242  1.00  0.00     0.012 C 
BRANCH   5   6
ATOM      6  C   UNL     1      35.227  -1.806  20.144  1.00  0.00    -0.022 A 
ATOM      7  C   UNL     1      37.207  -0.635  19.300  1.00  0.00     0.161 A 
ATOM      8  C   UNL     1      36.724  -0.784  17.988  1.00  0.00     0.157 A 
ATOM      9  C   UNL     1      36.448  -1.142  20.376  1.00  0.00     0.058 A 
ATOM     10  C   UNL     1      35.503  -1.423  17.761  1.00  0.00     0.051 A 
ATOM     11  C   UNL     1      34.758  -1.926  18.828  1.00  0.00     0.012 A 
BRANCH   7  12
ATOM     12  O   UNL     1      38.436   0.013  19.499  1.00  0.00    -0.493 OA
ATOM     13  C   UNL     1      39.625  -0.625  19.953  1.00  0.00     0.278 C 
ENDBRANCH   7  12
BRANCH   8  14
ATOM     14  O   UNL     1      37.447  -0.304  16.896  1.00  0.00    -0.504 OA
ATOM     15  H   UNL     1      37.527  -0.824  16.031  1.00  0.00     0.293 HD
ENDBRANCH   8  14
ENDBRANCH   5   6
ENDBRANCH   2   4
ENDBRANCH   1   2
BRANCH   1  16
ATOM     16  C   UNL     1      32.728  -2.695  24.522  1.00  0.00     0.163 C 
ATOM     17  O   UNL     1      33.450  -3.728  24.569  1.00  0.00    -0.294 OA
BRANCH  16  18
ATOM     18  C   UNL     1      32.683  -1.755  25.659  1.00  0.00     0.048 C 
ATOM     19  C   UNL     1      32.593  -2.163  26.930  1.00  0.00     0.012 C 
BRANCH  19  20
ATOM     20  C   UNL     1      32.661  -1.225  28.076  1.00  0.00    -0.022 A 
ATOM     21  C   UNL     1      33.634  -0.209  28.147  1.00  0.00     0.058 A 
ATOM     22  C   UNL     1      31.768  -1.390  29.144  1.00  0.00     0.012 A 
ATOM     23  C   UNL     1      33.694   0.654  29.260  1.00  0.00     0.161 A 
ATOM     24  C   UNL     1      31.819  -0.535  30.246  1.00  0.00     0.051 A 
ATOM     25  C   UNL     1      32.772   0.486  30.308  1.00  0.00     0.157 A 
BRANCH  23  26
ATOM     26  O   UNL     1      34.654   1.676  29.355  1.00  0.00    -0.493 OA
ATOM     27  C   UNL     1      35.271   2.312  28.240  1.00  0.00     0.278 C 
ENDBRANCH  23  26
BRANCH  25  28
ATOM     28  O   UNL     1      32.793   1.321  31.426  1.00  0.00    -0.504 OA
ATOM     29  H   UNL     1      33.441   2.095  31.510  1.00  0.00     0.293 HD
ENDBRANCH  25  28
ENDBRANCH  19  20
ENDBRANCH  16  18
ENDBRANCH   1  16
TORSDOF 10
ENDMDL
MODEL 9
REMARK VINA RESULT:    -7.252      3.107      5.082
REMARK INTER + INTRA:         -12.102
REMARK INTER:                 -11.519
REMARK INTRA:                  -0.583
REMARK UNBOUND:                -1.034
REMARK SMILES COc1cc(/C=C/C(=O)CC(=O)/C=C/c2ccc(O)c(OC)c2)ccc1O
REMARK SMILES IDX 10 1 8 2 9 3 7 4 6 5 5 6 3 7 26 8 4 9 25 10 24 11 2 12 1 13
REMARK SMILES IDX 27 14 11 16 12 17 13 18 14 19 15 20 23 21 16 22 20 23 17 24
REMARK SMILES IDX 18 25 21 26 22 27 19 28
REMARK H PARENT 27 15 19 29
REMARK Flexibility Score: inf
ROOT
ATOM      1  C   UNL     1      33.703  -2.932  24.133  1.00  0.00     0.160 C 
ENDROOT
BRANCH   1   2
ATOM      2  C   UNL     1      32.959  -3.458  22.941  1.00  0.00     0.163 C 
ATOM      3  O   UNL     1      32.085  -4.353  23.103  1.00  0.00    -0.294 OA
BRANCH   2   4
ATOM      4  C   UNL     1      33.301  -2.977  21.587  1.00  0.00     0.048 C 
ATOM      5  C   UNL     1      34.506  -2.472  21.289  1.00  0.00     0.012 C 
BRANCH   5   6
ATOM      6  C   UNL     1      34.839  -1.875  19.971  1.00  0.00    -0.022 A 
ATOM      7  C   UNL     1      34.702  -1.808  17.525  1.00  0.00     0.161 A 
ATOM      8  C   UNL     1      35.498  -0.649  17.522  1.00  0.00     0.157 A 
ATOM      9  C   UNL     1      34.382  -2.422  18.754  1.00  0.00     0.058 A 
ATOM     10  C   UNL     1      35.969  -0.121  18.726  1.00  0.00     0.051 A 
ATOM     11  C   UNL     1      35.647  -0.730  19.940  1.00  0.00     0.012 A 
BRANCH   7  12
ATOM     12  O   UNL     1      34.245  -2.318  16.299  1.00  0.00    -0.493 OA
ATOM     13  C   UNL     1      34.257  -3.696  15.940  1.00  0.00     0.278 C 
ENDBRANCH   7  12
BRANCH   8  14
ATOM     14  O   UNL     1      35.831  -0.007  16.329  1.00  0.00    -0.504 OA
ATOM     15  H   UNL     1      36.761   0.351  16.150  1.00  0.00     0.293 HD
ENDBRANCH   8  14
ENDBRANCH   5   6
ENDBRANCH   2   4
ENDBRANCH   1   2
BRANCH   1  16
ATOM     16  C   UNL     1      32.890  -3.141  25.378  1.00  0.00     0.163 C 
ATOM     17  O   UNL     1      33.257  -4.002  26.223  1.00  0.00    -0.294 OA
BRANCH  16  18
ATOM     18  C   UNL     1      31.705  -2.297  25.629  1.00  0.00     0.048 C 
ATOM     19  C   UNL     1      31.290  -1.982  26.862  1.00  0.00     0.012 C 
BRANCH  19  20
ATOM     20  C   UNL     1      30.170  -1.045  27.111  1.00  0.00    -0.022 A 
ATOM     21  C   UNL     1      28.912  -1.493  27.558  1.00  0.00     0.058 A 
ATOM     22  C   UNL     1      30.351   0.319  26.840  1.00  0.00     0.012 A 
ATOM     23  C   UNL     1      27.854  -0.585  27.762  1.00  0.00     0.161 A 
ATOM     24  C   UNL     1      29.309   1.224  27.046  1.00  0.00     0.051 A 
ATOM     25  C   UNL     1      28.065   0.782  27.508  1.00  0.00     0.157 A 
BRANCH  23  26
ATOM     26  O   UNL     1      26.590  -1.006  28.207  1.00  0.00    -0.493 OA
ATOM     27  C   UNL     1      26.114  -2.347  28.139  1.00  0.00     0.278 C 
ENDBRANCH  23  26
BRANCH  25  28
ATOM     28  O   UNL     1      27.048   1.716  27.703  1.00  0.00    -0.504 OA
ATOM     29  H   UNL     1      27.025   2.599  27.208  1.00  0.00     0.293 HD
ENDBRANCH  25  28
ENDBRANCH  19  20
ENDBRANCH  16  18
ENDBRANCH   1  16
TORSDOF 10
ENDMDL
MODEL 10
REMARK VINA RESULT:    -7.251      3.857      6.945
REMARK INTER + INTRA:         -12.100
REMARK INTER:                 -11.382
REMARK INTRA:                  -0.718
REMARK UNBOUND:                -1.034
REMARK SMILES COc1cc(/C=C/C(=O)CC(=O)/C=C/c2ccc(O)c(OC)c2)ccc1O
REMARK SMILES IDX 10 1 8 2 9 3 7 4 6 5 5 6 3 7 26 8 4 9 25 10 24 11 2 12 1 13
REMARK SMILES IDX 27 14 11 16 12 17 13 18 14 19 15 20 23 21 16 22 20 23 17 24
REMARK SMILES IDX 18 25 21 26 22 27 19 28
REMARK H PARENT 27 15 19 29
REMARK Flexibility Score: inf
ROOT
ATOM      1  C   UNL     1      33.440  -3.390  22.841  1.00  0.00     0.160 C 
ENDROOT
BRANCH   1   2
ATOM      2  C   UNL     1      34.001  -3.736  21.492  1.00  0.00     0.163 C 
ATOM      3  O   UNL     1      33.935  -4.926  21.081  1.00  0.00    -0.294 OA
BRANCH   2   4
ATOM      4  C   UNL     1      34.684  -2.700  20.690  1.00  0.00     0.048 C 
ATOM      5  C   UNL     1      34.364  -2.457  19.412  1.00  0.00     0.012 C 
BRANCH   5   6
ATOM      6  C   UNL     1      35.109  -1.504  18.550  1.00  0.00    -0.022 A 
ATOM      7  C   UNL     1      36.966   0.036  18.122  1.00  0.00     0.161 A 
ATOM      8  C   UNL     1      36.470   0.259  16.826  1.00  0.00     0.157 A 
ATOM      9  C   UNL     1      36.275  -0.842  18.983  1.00  0.00     0.058 A 
ATOM     10  C   UNL     1      35.302  -0.381  16.405  1.00  0.00     0.051 A 
ATOM     11  C   UNL     1      34.624  -1.251  17.259  1.00  0.00     0.012 A 
BRANCH   7  12
ATOM     12  O   UNL     1      38.141   0.695  18.519  1.00  0.00    -0.493 OA
ATOM     13  C   UNL     1      38.946   0.316  19.630  1.00  0.00     0.278 C 
ENDBRANCH   7  12
BRANCH   8  14
ATOM     14  O   UNL     1      37.126   1.114  15.940  1.00  0.00    -0.504 OA
ATOM     15  H   UNL     1      36.628   1.778  15.360  1.00  0.00     0.293 HD
ENDBRANCH   8  14
ENDBRANCH   5   6
ENDBRANCH   2   4
ENDBRANCH   1   2
BRANCH   1  16
ATOM     16  C   UNL     1      32.161  -2.619  22.681  1.00  0.00     0.163 C 
ATOM     17  O   UNL     1      31.407  -2.865  21.701  1.00  0.00    -0.294 OA
BRANCH  16  18
ATOM     18  C   UNL     1      31.772  -1.627  23.702  1.00  0.00     0.048 C 
ATOM     19  C   UNL     1      31.869  -1.865  25.015  1.00  0.00     0.012 C 
BRANCH  19  20
ATOM     20  C   UNL     1      31.584  -0.830  26.036  1.00  0.00    -0.022 A 
ATOM     21  C   UNL     1      32.514   0.182  26.347  1.00  0.00     0.058 A 
ATOM     22  C   UNL     1      30.382  -0.894  26.754  1.00  0.00     0.012 A 
ATOM     23  C   UNL     1      32.232   1.140  27.341  1.00  0.00     0.161 A 
ATOM     24  C   UNL     1      30.094   0.054  27.737  1.00  0.00     0.051 A 
ATOM     25  C   UNL     1      31.008   1.071  28.031  1.00  0.00     0.157 A 
BRANCH  23  26
ATOM     26  O   UNL     1      33.141   2.159  27.669  1.00  0.00    -0.493 OA
ATOM     27  C   UNL     1      34.517   1.950  27.968  1.00  0.00     0.278 C 
ENDBRANCH  23  26
BRANCH  25  28
ATOM     28  O   UNL     1      30.685   2.002  29.019  1.00  0.00    -0.504 OA
ATOM     29  H   UNL     1      31.038   2.950  29.003  1.00  0.00     0.293 HD
ENDBRANCH  25  28
ENDBRANCH  19  20
ENDBRANCH  16  18
ENDBRANCH   1  16
TORSDOF 10
ENDMDL
MODEL 11
REMARK VINA RESULT:    -7.005      2.014      3.615
REMARK INTER + INTRA:         -11.726
REMARK INTER:                 -11.548
REMARK INTRA:                  -0.178
REMARK UNBOUND:                -1.034
REMARK SMILES COc1cc(/C=C/C(=O)CC(=O)/C=C/c2ccc(O)c(OC)c2)ccc1O
REMARK SMILES IDX 10 1 8 2 9 3 7 4 6 5 5 6 3 7 26 8 4 9 25 10 24 11 2 12 1 13
REMARK SMILES IDX 27 14 11 16 12 17 13 18 14 19 15 20 23 21 16 22 20 23 17 24
REMARK SMILES IDX 18 25 21 26 22 27 19 28
REMARK H PARENT 27 15 19 29
REMARK Flexibility Score: inf
ROOT
ATOM      1  C   UNL     1      33.540  -1.616  26.653  1.00  0.00     0.160 C 
ENDROOT
BRANCH   1   2
ATOM      2  C   UNL     1      33.226  -2.822  25.817  1.00  0.00     0.163 C 
ATOM      3  O   UNL     1      33.199  -3.961  26.358  1.00  0.00    -0.294 OA
BRANCH   2   4
ATOM      4  C   UNL     1      33.019  -2.675  24.361  1.00  0.00     0.048 C 
ATOM      5  C   UNL     1      33.156  -3.702  23.511  1.00  0.00     0.012 C 
BRANCH   5   6
ATOM      6  C   UNL     1      33.067  -3.558  22.036  1.00  0.00    -0.022 A 
ATOM      7  C   UNL     1      31.844  -3.034  19.978  1.00  0.00     0.161 A 
ATOM      8  C   UNL     1      33.011  -3.279  19.233  1.00  0.00     0.157 A 
ATOM      9  C   UNL     1      31.877  -3.184  21.381  1.00  0.00     0.058 A 
ATOM     10  C   UNL     1      34.184  -3.671  19.881  1.00  0.00     0.051 A 
ATOM     11  C   UNL     1      34.213  -3.814  21.269  1.00  0.00     0.012 A 
BRANCH   7  12
ATOM     12  O   UNL     1      30.678  -2.644  19.300  1.00  0.00    -0.493 OA
ATOM     13  C   UNL     1      29.360  -3.047  19.657  1.00  0.00     0.278 C 
ENDBRANCH   7  12
BRANCH   8  14
ATOM     14  O   UNL     1      33.023  -3.135  17.846  1.00  0.00    -0.504 OA
ATOM     15  H   UNL     1      32.769  -3.892  17.222  1.00  0.00     0.293 HD
ENDBRANCH   8  14
ENDBRANCH   5   6
ENDBRANCH   2   4
ENDBRANCH   1   2
BRANCH   1  16
ATOM     16  C   UNL     1      33.025  -1.815  28.050  1.00  0.00     0.163 C 
ATOM     17  O   UNL     1      33.820  -1.720  29.025  1.00  0.00    -0.294 OA
BRANCH  16  18
ATOM     18  C   UNL     1      31.586  -2.057  28.272  1.00  0.00     0.048 C 
ATOM     19  C   UNL     1      30.633  -1.488  27.525  1.00  0.00     0.012 C 
BRANCH  19  20
ATOM     20  C   UNL     1      29.197  -1.818  27.676  1.00  0.00    -0.022 A 
ATOM     21  C   UNL     1      28.192  -0.839  27.548  1.00  0.00     0.058 A 
ATOM     22  C   UNL     1      28.832  -3.130  28.011  1.00  0.00     0.012 A 
ATOM     23  C   UNL     1      26.834  -1.173  27.723  1.00  0.00     0.161 A 
ATOM     24  C   UNL     1      27.489  -3.468  28.180  1.00  0.00     0.051 A 
ATOM     25  C   UNL     1      26.489  -2.501  28.034  1.00  0.00     0.157 A 
BRANCH  23  26
ATOM     26  O   UNL     1      25.813  -0.216  27.601  1.00  0.00    -0.493 OA
ATOM     27  C   UNL     1      24.703  -0.327  26.715  1.00  0.00     0.278 C 
ENDBRANCH  23  26
BRANCH  25  28
ATOM     28  O   UNL     1      25.157  -2.877  28.209  1.00  0.00    -0.504 OA
ATOM     29  H   UNL     1      24.733  -2.947  29.126  1.00  0.00     0.293 HD
ENDBRANCH  25  28
ENDBRANCH  19  20
ENDBRANCH  16  18
ENDBRANCH   1  16
TORSDOF 10
ENDMDL
MODEL 12
REMARK VINA RESULT:    -6.808      4.101      7.116
REMARK INTER + INTRA:         -11.425
REMARK INTER:                 -10.809
REMARK INTRA:                  -0.616
REMARK UNBOUND:                -1.034
REMARK SMILES COc1cc(/C=C/C(=O)CC(=O)/C=C/c2ccc(O)c(OC)c2)ccc1O
REMARK SMILES IDX 10 1 8 2 9 3 7 4 6 5 5 6 3 7 26 8 4 9 25 10 24 11 2 12 1 13
REMARK SMILES IDX 27 14 11 16 12 17 13 18 14 19 15 20 23 21 16 22 20 23 17 24
REMARK SMILES IDX 18 25 21 26 22 27 19 28
REMARK H PARENT 27 15 19 29
REMARK Flexibility Score: inf
ROOT
ATOM      1  C   UNL     1      33.777  -3.511  22.244  1.00  0.00     0.160 C 
ENDROOT
BRANCH   1   2
ATOM      2  C   UNL     1      33.947  -3.685  20.763  1.00  0.00     0.163 C 
ATOM      3  O   UNL     1      33.383  -4.652  20.184  1.00  0.00    -0.294 OA
BRANCH   2   4
ATOM      4  C   UNL     1      34.825  -2.766  20.010  1.00  0.00     0.048 C 
ATOM      5  C   UNL     1      35.885  -2.167  20.570  1.00  0.00     0.012 C 
BRANCH   5   6
ATOM      6  C   UNL     1      36.715  -1.153  19.872  1.00  0.00    -0.022 A 
ATOM      7  C   UNL     1      37.337   0.148  17.891  1.00  0.00     0.161 A 
ATOM      8  C   UNL     1      38.317   0.814  18.647  1.00  0.00     0.157 A 
ATOM      9  C   UNL     1      36.543  -0.841  18.508  1.00  0.00     0.058 A 
ATOM     10  C   UNL     1      38.502   0.489  19.992  1.00  0.00     0.051 A 
ATOM     11  C   UNL     1      37.711  -0.488  20.600  1.00  0.00     0.012 A 
BRANCH   7  12
ATOM     12  O   UNL     1      37.176   0.493  16.539  1.00  0.00    -0.493 OA
ATOM     13  C   UNL     1      36.171   1.370  16.041  1.00  0.00     0.278 C 
ENDBRANCH   7  12
BRANCH   8  14
ATOM     14  O   UNL     1      39.118   1.803  18.076  1.00  0.00    -0.504 OA
ATOM     15  H   UNL     1      39.467   1.735  17.128  1.00  0.00     0.293 HD
ENDBRANCH   8  14
ENDBRANCH   5   6
ENDBRANCH   2   4
ENDBRANCH   1   2
BRANCH   1  16
ATOM     16  C   UNL     1      32.525  -2.731  22.527  1.00  0.00     0.163 C 
ATOM     17  O   UNL     1      31.541  -2.830  21.744  1.00  0.00    -0.294 OA
BRANCH  16  18
ATOM     18  C   UNL     1      32.436  -1.907  23.747  1.00  0.00     0.048 C 
ATOM     19  C   UNL     1      31.293  -1.347  24.160  1.00  0.00     0.012 C 
BRANCH  19  20
ATOM     20  C   UNL     1      31.181  -0.614  25.444  1.00  0.00    -0.022 A 
ATOM     21  C   UNL     1      32.318  -0.173  26.148  1.00  0.00     0.058 A 
ATOM     22  C   UNL     1      29.911  -0.406  25.999  1.00  0.00     0.012 A 
ATOM     23  C   UNL     1      32.187   0.498  27.380  1.00  0.00     0.161 A 
ATOM     24  C   UNL     1      29.774   0.263  27.217  1.00  0.00     0.051 A 
ATOM     25  C   UNL     1      30.902   0.719  27.907  1.00  0.00     0.157 A 
BRANCH  23  26
ATOM     26  O   UNL     1      33.305   0.949  28.102  1.00  0.00    -0.493 OA
ATOM     27  C   UNL     1      34.031   2.138  27.807  1.00  0.00     0.278 C 
ENDBRANCH  23  26
BRANCH  25  28
ATOM     28  O   UNL     1      30.725   1.385  29.120  1.00  0.00    -0.504 OA
ATOM     29  H   UNL     1      30.406   2.345  29.168  1.00  0.00     0.293 HD
ENDBRANCH  25  28
ENDBRANCH  19  20
ENDBRANCH  16  18
ENDBRANCH   1  16
TORSDOF 10
ENDMDL
MODEL 13
REMARK VINA RESULT:    -6.647      2.816      5.898
REMARK INTER + INTRA:         -11.179
REMARK INTER:                 -10.389
REMARK INTRA:                  -0.790
REMARK UNBOUND:                -1.034
REMARK SMILES COc1cc(/C=C/C(=O)CC(=O)/C=C/c2ccc(O)c(OC)c2)ccc1O
REMARK SMILES IDX 10 1 8 2 9 3 7 4 6 5 5 6 3 7 26 8 4 9 25 10 24 11 2 12 1 13
REMARK SMILES IDX 27 14 11 16 12 17 13 18 14 19 15 20 23 21 16 22 20 23 17 24
REMARK SMILES IDX 18 25 21 26 22 27 19 28
REMARK H PARENT 27 15 19 29
REMARK Flexibility Score: inf
ROOT
ATOM      1  C   UNL     1      31.766  -3.179  24.412  1.00  0.00     0.160 C 
ENDROOT
BRANCH   1   2
ATOM      2  C   UNL     1      33.144  -3.521  23.922  1.00  0.00     0.163 C 
ATOM      3  O   UNL     1      34.070  -3.699  24.759  1.00  0.00    -0.294 OA
BRANCH   2   4
ATOM      4  C   UNL     1      33.417  -3.578  22.472  1.00  0.00     0.048 C 
ATOM      5  C   UNL     1      33.999  -2.567  21.813  1.00  0.00     0.012 C 
BRANCH   5   6
ATOM      6  C   UNL     1      34.182  -2.550  20.339  1.00  0.00    -0.022 A 
ATOM      7  C   UNL     1      33.727  -3.405  18.088  1.00  0.00     0.161 A 
ATOM      8  C   UNL     1      34.564  -2.412  17.551  1.00  0.00     0.157 A 
ATOM      9  C   UNL     1      33.545  -3.473  19.485  1.00  0.00     0.058 A 
ATOM     10  C   UNL     1      35.212  -1.510  18.399  1.00  0.00     0.051 A 
ATOM     11  C   UNL     1      35.027  -1.580  19.781  1.00  0.00     0.012 A 
BRANCH   7  12
ATOM     12  O   UNL     1      33.091  -4.299  17.212  1.00  0.00    -0.493 OA
ATOM     13  C   UNL     1      31.691  -4.323  16.954  1.00  0.00     0.278 C 
ENDBRANCH   7  12
BRANCH   8  14
ATOM     14  O   UNL     1      34.764  -2.305  16.175  1.00  0.00    -0.504 OA
ATOM     15  H   UNL     1      35.226  -1.506  15.757  1.00  0.00     0.293 HD
ENDBRANCH   8  14
ENDBRANCH   5   6
ENDBRANCH   2   4
ENDBRANCH   1   2
BRANCH   1  16
ATOM     16  C   UNL     1      31.620  -1.689  24.528  1.00  0.00     0.163 C 
ATOM     17  O   UNL     1      31.031  -1.049  23.614  1.00  0.00    -0.294 OA
BRANCH  16  18
ATOM     18  C   UNL     1      32.111  -0.997  25.736  1.00  0.00     0.048 C 
ATOM     19  C   UNL     1      31.293  -0.559  26.701  1.00  0.00     0.012 C 
BRANCH  19  20
ATOM     20  C   UNL     1      31.794   0.033  27.963  1.00  0.00    -0.022 A 
ATOM     21  C   UNL     1      33.072   0.619  28.052  1.00  0.00     0.058 A 
ATOM     22  C   UNL     1      30.997  -0.043  29.114  1.00  0.00     0.012 A 
ATOM     23  C   UNL     1      33.537   1.152  29.271  1.00  0.00     0.161 A 
ATOM     24  C   UNL     1      31.450   0.487  30.323  1.00  0.00     0.051 A 
ATOM     25  C   UNL     1      32.710   1.087  30.407  1.00  0.00     0.157 A 
BRANCH  23  26
ATOM     26  O   UNL     1      34.806   1.743  29.387  1.00  0.00    -0.493 OA
ATOM     27  C   UNL     1      35.524   2.334  28.309  1.00  0.00     0.278 C 
ENDBRANCH  23  26
BRANCH  25  28
ATOM     28  O   UNL     1      33.128   1.607  31.633  1.00  0.00    -0.504 OA
ATOM     29  H   UNL     1      32.908   1.158  32.513  1.00  0.00     0.293 HD
ENDBRANCH  25  28
ENDBRANCH  19  20
ENDBRANCH  16  18
ENDBRANCH   1  16
TORSDOF 10
ENDMDL
MODEL 14
REMARK VINA RESULT:    -6.628      1.872      7.692
REMARK INTER + INTRA:         -11.150
REMARK INTER:                 -10.611
REMARK INTRA:                  -0.539
REMARK UNBOUND:                -1.034
REMARK SMILES COc1cc(/C=C/C(=O)CC(=O)/C=C/c2ccc(O)c(OC)c2)ccc1O
REMARK SMILES IDX 10 1 8 2 9 3 7 4 6 5 5 6 3 7 26 8 4 9 25 10 24 11 2 12 1 13
REMARK SMILES IDX 27 14 11 16 12 17 13 18 14 19 15 20 23 21 16 22 20 23 17 24
REMARK SMILES IDX 18 25 21 26 22 27 19 28
REMARK H PARENT 27 15 19 29
REMARK Flexibility Score: inf
ROOT
ATOM      1  C   UNL     1      34.022  -1.901  26.831  1.00  0.00     0.160 C 
ENDROOT
BRANCH   1   2
ATOM      2  C   UNL     1      33.184  -1.631  28.047  1.00  0.00     0.163 C 
ATOM      3  O   UNL     1      33.742  -1.533  29.173  1.00  0.00    -0.294 OA
BRANCH   2   4
ATOM      4  C   UNL     1      31.714  -1.552  27.926  1.00  0.00     0.048 C 
ATOM      5  C   UNL     1      31.093  -0.469  27.440  1.00  0.00     0.012 C 
BRANCH   5   6
ATOM      6  C   UNL     1      29.616  -0.316  27.414  1.00  0.00    -0.022 A 
ATOM      7  C   UNL     1      27.342  -1.230  27.387  1.00  0.00     0.161 A 
ATOM      8  C   UNL     1      26.826   0.077  27.401  1.00  0.00     0.157 A 
ATOM      9  C   UNL     1      28.740  -1.421  27.386  1.00  0.00     0.058 A 
ATOM     10  C   UNL     1      27.695   1.171  27.406  1.00  0.00     0.051 A 
ATOM     11  C   UNL     1      29.077   0.978  27.408  1.00  0.00     0.012 A 
BRANCH   7  12
ATOM     12  O   UNL     1      26.445  -2.311  27.380  1.00  0.00    -0.493 OA
ATOM     13  C   UNL     1      25.903  -2.922  28.546  1.00  0.00     0.278 C 
ENDBRANCH   7  12
BRANCH   8  14
ATOM     14  O   UNL     1      25.451   0.309  27.410  1.00  0.00    -0.504 OA
ATOM     15  H   UNL     1      24.892   0.276  26.566  1.00  0.00     0.293 HD
ENDBRANCH   8  14
ENDBRANCH   5   6
ENDBRANCH   2   4
ENDBRANCH   1   2
BRANCH   1  16
ATOM     16  C   UNL     1      33.491  -3.099  26.099  1.00  0.00     0.163 C 
ATOM     17  O   UNL     1      32.882  -3.999  26.739  1.00  0.00    -0.294 OA
BRANCH  16  18
ATOM     18  C   UNL     1      33.632  -3.183  24.632  1.00  0.00     0.048 C 
ATOM     19  C   UNL     1      32.647  -2.849  23.791  1.00  0.00     0.012 C 
BRANCH  19  20
ATOM     20  C   UNL     1      32.828  -2.826  22.320  1.00  0.00    -0.022 A 
ATOM     21  C   UNL     1      34.048  -2.446  21.728  1.00  0.00     0.058 A 
ATOM     22  C   UNL     1      31.737  -3.135  21.496  1.00  0.00     0.012 A 
ATOM     23  C   UNL     1      34.187  -2.407  20.326  1.00  0.00     0.161 A 
ATOM     24  C   UNL     1      31.869  -3.103  20.107  1.00  0.00     0.051 A 
ATOM     25  C   UNL     1      33.086  -2.745  19.518  1.00  0.00     0.157 A 
BRANCH  23  26
ATOM     26  O   UNL     1      35.392  -2.032  19.710  1.00  0.00    -0.493 OA
ATOM     27  C   UNL     1      36.590  -1.706  20.408  1.00  0.00     0.278 C 
ENDBRANCH  23  26
BRANCH  25  28
ATOM     28  O   UNL     1      33.181  -2.725  18.126  1.00  0.00    -0.504 OA
ATOM     29  H   UNL     1      32.472  -2.297  17.543  1.00  0.00     0.293 HD
ENDBRANCH  25  28
ENDBRANCH  19  20
ENDBRANCH  16  18
ENDBRANCH   1  16
TORSDOF 10
ENDMDL
MODEL 15
REMARK VINA RESULT:    -6.523      1.552      6.769
REMARK INTER + INTRA:         -10.990
REMARK INTER:                 -10.536
REMARK INTRA:                  -0.454
REMARK UNBOUND:                -1.034
REMARK SMILES COc1cc(/C=C/C(=O)CC(=O)/C=C/c2ccc(O)c(OC)c2)ccc1O
REMARK SMILES IDX 10 1 8 2 9 3 7 4 6 5 5 6 3 7 26 8 4 9 25 10 24 11 2 12 1 13
REMARK SMILES IDX 27 14 11 16 12 17 13 18 14 19 15 20 23 21 16 22 20 23 17 24
REMARK SMILES IDX 18 25 21 26 22 27 19 28
REMARK H PARENT 27 15 19 29
REMARK Flexibility Score: inf
ROOT
ATOM      1  C   UNL     1      27.548  -0.901  27.432  1.00  0.00     0.160 C 
ENDROOT
BRANCH   1   2
ATOM      2  C   UNL     1      28.287  -2.091  27.973  1.00  0.00     0.163 C 
ATOM      3  O   UNL     1      27.639  -3.116  28.319  1.00  0.00    -0.294 OA
BRANCH   2   4
ATOM      4  C   UNL     1      29.751  -2.027  28.160  1.00  0.00     0.048 C 
ATOM      5  C   UNL     1      30.353  -0.983  28.744  1.00  0.00     0.012 C 
BRANCH   5   6
ATOM      6  C   UNL     1      31.829  -0.840  28.841  1.00  0.00    -0.022 A 
ATOM      7  C   UNL     1      33.864   0.498  29.103  1.00  0.00     0.161 A 
ATOM      8  C   UNL     1      34.633  -0.678  29.050  1.00  0.00     0.157 A 
ATOM      9  C   UNL     1      32.461   0.410  28.990  1.00  0.00     0.058 A 
ATOM     10  C   UNL     1      34.007  -1.915  28.881  1.00  0.00     0.051 A 
ATOM     11  C   UNL     1      32.618  -1.997  28.773  1.00  0.00     0.012 A 
BRANCH   7  12
ATOM     12  O   UNL     1      34.521   1.728  29.271  1.00  0.00    -0.493 OA
ATOM     13  C   UNL     1      35.088   2.495  28.213  1.00  0.00     0.278 C 
ENDBRANCH   7  12
BRANCH   8  14
ATOM     14  O   UNL     1      36.022  -0.637  29.166  1.00  0.00    -0.504 OA
ATOM     15  H   UNL     1      36.494   0.024  29.772  1.00  0.00     0.293 HD
ENDBRANCH   8  14
ENDBRANCH   5   6
ENDBRANCH   2   4
ENDBRANCH   1   2
BRANCH   1  16
ATOM     16  C   UNL     1      28.398  -0.189  26.420  1.00  0.00     0.163 C 
ATOM     17  O   UNL     1      28.414   1.072  26.399  1.00  0.00    -0.294 OA
BRANCH  16  18
ATOM     18  C   UNL     1      29.251  -0.968  25.501  1.00  0.00     0.048 C 
ATOM     19  C   UNL     1      30.548  -0.697  25.314  1.00  0.00     0.012 C 
BRANCH  19  20
ATOM     20  C   UNL     1      31.429  -1.548  24.480  1.00  0.00    -0.022 A 
ATOM     21  C   UNL     1      31.117  -1.849  23.139  1.00  0.00     0.058 A 
ATOM     22  C   UNL     1      32.573  -2.116  25.058  1.00  0.00     0.012 A 
ATOM     23  C   UNL     1      31.957  -2.683  22.374  1.00  0.00     0.161 A 
ATOM     24  C   UNL     1      33.412  -2.938  24.303  1.00  0.00     0.051 A 
ATOM     25  C   UNL     1      33.113  -3.221  22.967  1.00  0.00     0.157 A 
BRANCH  23  26
ATOM     26  O   UNL     1      31.670  -2.998  21.035  1.00  0.00    -0.493 OA
ATOM     27  C   UNL     1      30.365  -3.264  20.530  1.00  0.00     0.278 C 
ENDBRANCH  23  26
BRANCH  25  28
ATOM     28  O   UNL     1      33.976  -4.046  22.244  1.00  0.00    -0.504 OA
ATOM     29  H   UNL     1      33.667  -4.916  21.828  1.00  0.00     0.293 HD
ENDBRANCH  25  28
ENDBRANCH  19  20
ENDBRANCH  16  18
ENDBRANCH   1  16
TORSDOF 10
ENDMDL
MODEL 16
REMARK VINA RESULT:    -6.178      3.772      6.780
REMARK INTER + INTRA:         -10.462
REMARK INTER:                  -9.720
REMARK INTRA:                  -0.742
REMARK UNBOUND:                -1.034
REMARK SMILES COc1cc(/C=C/C(=O)CC(=O)/C=C/c2ccc(O)c(OC)c2)ccc1O
REMARK SMILES IDX 10 1 8 2 9 3 7 4 6 5 5 6 3 7 26 8 4 9 25 10 24 11 2 12 1 13
REMARK SMILES IDX 27 14 11 16 12 17 13 18 14 19 15 20 23 21 16 22 20 23 17 24
REMARK SMILES IDX 18 25 21 26 22 27 19 28
REMARK H PARENT 27 15 19 29
REMARK Flexibility Score: inf
ROOT
ATOM      1  C   UNL     1      32.809  -3.650  22.939  1.00  0.00     0.160 C 
ENDROOT
BRANCH   1   2
ATOM      2  C   UNL     1      33.280  -3.487  21.523  1.00  0.00     0.163 C 
ATOM      3  O   UNL     1      32.915  -4.322  20.651  1.00  0.00    -0.294 OA
BRANCH   2   4
ATOM      4  C   UNL     1      34.216  -2.398  21.178  1.00  0.00     0.048 C 
ATOM      5  C   UNL     1      35.432  -2.633  20.668  1.00  0.00     0.012 C 
BRANCH   5   6
ATOM      6  C   UNL     1      36.435  -1.566  20.421  1.00  0.00    -0.022 A 
ATOM      7  C   UNL     1      38.721  -0.797  19.989  1.00  0.00     0.161 A 
ATOM      8  C   UNL     1      38.253   0.526  19.920  1.00  0.00     0.157 A 
ATOM      9  C   UNL     1      37.807  -1.840  20.248  1.00  0.00     0.058 A 
ATOM     10  C   UNL     1      36.897   0.799  20.113  1.00  0.00     0.051 A 
ATOM     11  C   UNL     1      35.996  -0.236  20.366  1.00  0.00     0.012 A 
BRANCH   7  12
ATOM     12  O   UNL     1      40.090  -1.042  19.794  1.00  0.00    -0.493 OA
ATOM     13  C   UNL     1      40.918  -1.777  20.689  1.00  0.00     0.278 C 
ENDBRANCH   7  12
BRANCH   8  14
ATOM     14  O   UNL     1      39.123   1.585  19.659  1.00  0.00    -0.504 OA
ATOM     15  H   UNL     1      38.794   2.486  19.334  1.00  0.00     0.293 HD
ENDBRANCH   8  14
ENDBRANCH   5   6
ENDBRANCH   2   4
ENDBRANCH   1   2
BRANCH   1  16
ATOM     16  C   UNL     1      31.908  -2.508  23.313  1.00  0.00     0.163 C 
ATOM     17  O   UNL     1      30.985  -2.163  22.526  1.00  0.00    -0.294 OA
BRANCH  16  18
ATOM     18  C   UNL     1      32.072  -1.843  24.620  1.00  0.00     0.048 C 
ATOM     19  C   UNL     1      31.635  -0.601  24.859  1.00  0.00     0.012 C 
BRANCH  19  20
ATOM     20  C   UNL     1      31.700   0.023  26.202  1.00  0.00    -0.022 A 
ATOM     21  C   UNL     1      32.702   0.952  26.541  1.00  0.00     0.058 A 
ATOM     22  C   UNL     1      30.772  -0.366  27.178  1.00  0.00     0.012 A 
ATOM     23  C   UNL     1      32.759   1.511  27.834  1.00  0.00     0.161 A 
ATOM     24  C   UNL     1      30.819   0.188  28.458  1.00  0.00     0.051 A 
ATOM     25  C   UNL     1      31.802   1.126  28.790  1.00  0.00     0.157 A 
BRANCH  23  26
ATOM     26  O   UNL     1      33.748   2.441  28.198  1.00  0.00    -0.493 OA
ATOM     27  C   UNL     1      35.133   2.138  28.324  1.00  0.00     0.278 C 
ENDBRANCH  23  26
BRANCH  25  28
ATOM     28  O   UNL     1      31.817   1.659  30.079  1.00  0.00    -0.504 OA
ATOM     29  H   UNL     1      31.234   2.443  30.345  1.00  0.00     0.293 HD
ENDBRANCH  25  28
ENDBRANCH  19  20
ENDBRANCH  16  18
ENDBRANCH   1  16
TORSDOF 10
ENDMDL
MODEL 17
REMARK VINA RESULT:    -6.161      1.654      2.789
REMARK INTER + INTRA:         -10.437
REMARK INTER:                  -9.049
REMARK INTRA:                  -1.388
REMARK UNBOUND:                -1.034
REMARK SMILES COc1cc(/C=C/C(=O)CC(=O)/C=C/c2ccc(O)c(OC)c2)ccc1O
REMARK SMILES IDX 10 1 8 2 9 3 7 4 6 5 5 6 3 7 26 8 4 9 25 10 24 11 2 12 1 13
REMARK SMILES IDX 27 14 11 16 12 17 13 18 14 19 15 20 23 21 16 22 20 23 17 24
REMARK SMILES IDX 18 25 21 26 22 27 19 28
REMARK H PARENT 27 15 19 29
REMARK Flexibility Score: inf
ROOT
ATOM      1  C   UNL     1      32.080   2.341  28.866  1.00  0.00     0.160 C 
ENDROOT
BRANCH   1   2
ATOM      2  C   UNL     1      33.337   1.920  28.160  1.00  0.00     0.163 C 
ATOM      3  O   UNL     1      34.343   2.680  28.183  1.00  0.00    -0.294 OA
BRANCH   2   4
ATOM      4  C   UNL     1      33.363   0.660  27.391  1.00  0.00     0.048 C 
ATOM      5  C   UNL     1      32.551   0.440  26.348  1.00  0.00     0.012 C 
BRANCH   5   6
ATOM      6  C   UNL     1      32.475  -0.859  25.630  1.00  0.00    -0.022 A 
ATOM      7  C   UNL     1      32.238  -2.199  23.593  1.00  0.00     0.161 A 
ATOM      8  C   UNL     1      32.381  -3.370  24.358  1.00  0.00     0.157 A 
ATOM      9  C   UNL     1      32.278  -0.945  24.237  1.00  0.00     0.058 A 
ATOM     10  C   UNL     1      32.554  -3.284  25.741  1.00  0.00     0.051 A 
ATOM     11  C   UNL     1      32.596  -2.041  26.374  1.00  0.00     0.012 A 
BRANCH   7  12
ATOM     12  O   UNL     1      32.063  -2.316  22.205  1.00  0.00    -0.493 OA
ATOM     13  C   UNL     1      30.956  -2.957  21.579  1.00  0.00     0.278 C 
ENDBRANCH   7  12
BRANCH   8  14
ATOM     14  O   UNL     1      32.355  -4.629  23.759  1.00  0.00    -0.504 OA
ATOM     15  H   UNL     1      33.162  -5.241  23.752  1.00  0.00     0.293 HD
ENDBRANCH   8  14
ENDBRANCH   5   6
ENDBRANCH   2   4
ENDBRANCH   1   2
BRANCH   1  16
ATOM     16  C   UNL     1      31.671   1.286  29.853  1.00  0.00     0.163 C 
ATOM     17  O   UNL     1      32.151   1.307  31.019  1.00  0.00    -0.294 OA
BRANCH  16  18
ATOM     18  C   UNL     1      30.667   0.275  29.469  1.00  0.00     0.048 C 
ATOM     19  C   UNL     1      29.955   0.355  28.339  1.00  0.00     0.012 C 
BRANCH  19  20
ATOM     20  C   UNL     1      29.030  -0.716  27.901  1.00  0.00    -0.022 A 
ATOM     21  C   UNL     1      27.684  -0.450  27.580  1.00  0.00     0.058 A 
ATOM     22  C   UNL     1      29.491  -2.039  27.861  1.00  0.00     0.012 A 
ATOM     23  C   UNL     1      26.817  -1.490  27.191  1.00  0.00     0.161 A 
ATOM     24  C   UNL     1      28.638  -3.073  27.472  1.00  0.00     0.051 A 
ATOM     25  C   UNL     1      27.308  -2.807  27.133  1.00  0.00     0.157 A 
BRANCH  23  26
ATOM     26  O   UNL     1      25.471  -1.252  26.865  1.00  0.00    -0.493 OA
ATOM     27  C   UNL     1      24.730  -0.108  27.278  1.00  0.00     0.278 C 
ENDBRANCH  23  26
BRANCH  25  28
ATOM     28  O   UNL     1      26.486  -3.866  26.748  1.00  0.00    -0.504 OA
ATOM     29  H   UNL     1      26.824  -4.633  26.180  1.00  0.00     0.293 HD
ENDBRANCH  25  28
ENDBRANCH  19  20
ENDBRANCH  16  18
ENDBRANCH   1  16
TORSDOF 10
ENDMDL
MODEL 18
REMARK VINA RESULT:    -6.075      8.990     12.781
REMARK INTER + INTRA:         -10.306
REMARK INTER:                  -9.742
REMARK INTRA:                  -0.564
REMARK UNBOUND:                -1.034
REMARK SMILES COc1cc(/C=C/C(=O)CC(=O)/C=C/c2ccc(O)c(OC)c2)ccc1O
REMARK SMILES IDX 10 1 8 2 9 3 7 4 6 5 5 6 3 7 26 8 4 9 25 10 24 11 2 12 1 13
REMARK SMILES IDX 27 14 11 16 12 17 13 18 14 19 15 20 23 21 16 22 20 23 17 24
REMARK SMILES IDX 18 25 21 26 22 27 19 28
REMARK H PARENT 27 15 19 29
REMARK Flexibility Score: inf
ROOT
ATOM      1  C   UNL     1      37.817   1.326  15.958  1.00  0.00     0.160 C 
ENDROOT
BRANCH   1   2
ATOM      2  C   UNL     1      37.366   0.413  17.060  1.00  0.00     0.163 C 
ATOM      3  O   UNL     1      37.909   0.498  18.195  1.00  0.00    -0.294 OA
BRANCH   2   4
ATOM      4  C   UNL     1      36.343  -0.619  16.790  1.00  0.00     0.048 C 
ATOM      5  C   UNL     1      35.167  -0.645  17.430  1.00  0.00     0.012 C 
BRANCH   5   6
ATOM      6  C   UNL     1      34.170  -1.733  17.263  1.00  0.00    -0.022 A 
ATOM      7  C   UNL     1      31.930  -2.684  17.548  1.00  0.00     0.161 A 
ATOM      8  C   UNL     1      32.343  -3.840  16.863  1.00  0.00     0.157 A 
ATOM      9  C   UNL     1      32.852  -1.636  17.752  1.00  0.00     0.058 A 
ATOM     10  C   UNL     1      33.655  -3.945  16.398  1.00  0.00     0.051 A 
ATOM     11  C   UNL     1      34.563  -2.904  16.599  1.00  0.00     0.012 A 
BRANCH   7  12
ATOM     12  O   UNL     1      30.605  -2.607  18.008  1.00  0.00    -0.493 OA
ATOM     13  C   UNL     1      30.162  -3.058  19.284  1.00  0.00     0.278 C 
ENDBRANCH   7  12
BRANCH   8  14
ATOM     14  O   UNL     1      31.460  -4.896  16.634  1.00  0.00    -0.504 OA
ATOM     15  H   UNL     1      30.699  -4.829  15.970  1.00  0.00     0.293 HD
ENDBRANCH   8  14
ENDBRANCH   5   6
ENDBRANCH   2   4
ENDBRANCH   1   2
BRANCH   1  16
ATOM     16  C   UNL     1      39.043   2.080  16.388  1.00  0.00     0.163 C 
ATOM     17  O   UNL     1      40.184   1.619  16.112  1.00  0.00    -0.294 OA
BRANCH  16  18
ATOM     18  C   UNL     1      38.901   3.379  17.073  1.00  0.00     0.048 C 
ATOM     19  C   UNL     1      39.657   3.731  18.120  1.00  0.00     0.012 C 
BRANCH  19  20
ATOM     20  C   UNL     1      39.590   5.078  18.735  1.00  0.00    -0.022 A 
ATOM     21  C   UNL     1      38.679   6.054  18.288  1.00  0.00     0.058 A 
ATOM     22  C   UNL     1      40.499   5.407  19.750  1.00  0.00     0.012 A 
ATOM     23  C   UNL     1      38.653   7.336  18.872  1.00  0.00     0.161 A 
ATOM     24  C   UNL     1      40.475   6.674  20.336  1.00  0.00     0.051 A 
ATOM     25  C   UNL     1      39.557   7.637  19.907  1.00  0.00     0.157 A 
BRANCH  23  26
ATOM     26  O   UNL     1      37.753   8.328  18.445  1.00  0.00    -0.493 OA
ATOM     27  C   UNL     1      36.378   8.382  18.811  1.00  0.00     0.278 C 
ENDBRANCH  23  26
BRANCH  25  28
ATOM     28  O   UNL     1      39.562   8.892  20.516  1.00  0.00    -0.504 OA
ATOM     29  H   UNL     1      39.122   9.699  20.093  1.00  0.00     0.293 HD
ENDBRANCH  25  28
ENDBRANCH  19  20
ENDBRANCH  16  18
ENDBRANCH   1  16
TORSDOF 10
ENDMDL
MODEL 19
REMARK VINA RESULT:    -5.943      3.842      7.030
REMARK INTER + INTRA:         -10.104
REMARK INTER:                  -9.698
REMARK INTRA:                  -0.406
REMARK UNBOUND:                -1.034
REMARK SMILES COc1cc(/C=C/C(=O)CC(=O)/C=C/c2ccc(O)c(OC)c2)ccc1O
REMARK SMILES IDX 10 1 8 2 9 3 7 4 6 5 5 6 3 7 26 8 4 9 25 10 24 11 2 12 1 13
REMARK SMILES IDX 27 14 11 16 12 17 13 18 14 19 15 20 23 21 16 22 20 23 17 24
REMARK SMILES IDX 18 25 21 26 22 27 19 28
REMARK H PARENT 27 15 19 29
REMARK Flexibility Score: inf
ROOT
ATOM      1  C   UNL     1      33.259  -3.998  22.681  1.00  0.00     0.160 C 
ENDROOT
BRANCH   1   2
ATOM      2  C   UNL     1      33.682  -3.905  21.243  1.00  0.00     0.163 C 
ATOM      3  O   UNL     1      33.018  -4.518  20.363  1.00  0.00    -0.294 OA
BRANCH   2   4
ATOM      4  C   UNL     1      34.902  -3.157  20.881  1.00  0.00     0.048 C 
ATOM      5  C   UNL     1      34.858  -1.925  20.354  1.00  0.00     0.012 C 
BRANCH   5   6
ATOM      6  C   UNL     1      36.061  -1.198  19.875  1.00  0.00    -0.022 A 
ATOM      7  C   UNL     1      37.216   0.279  18.297  1.00  0.00     0.161 A 
ATOM      8  C   UNL     1      38.386   0.173  19.069  1.00  0.00     0.157 A 
ATOM      9  C   UNL     1      36.057  -0.416  18.702  1.00  0.00     0.058 A 
ATOM     10  C   UNL     1      38.395  -0.619  20.219  1.00  0.00     0.051 A 
ATOM     11  C   UNL     1      37.246  -1.302  20.618  1.00  0.00     0.012 A 
BRANCH   7  12
ATOM     12  O   UNL     1      37.237   1.080  17.144  1.00  0.00    -0.493 OA
ATOM     13  C   UNL     1      37.728   0.661  15.875  1.00  0.00     0.278 C 
ENDBRANCH   7  12
BRANCH   8  14
ATOM     14  O   UNL     1      39.551   0.850  18.708  1.00  0.00    -0.504 OA
ATOM     15  H   UNL     1      39.705   1.197  17.769  1.00  0.00     0.293 HD
ENDBRANCH   8  14
ENDBRANCH   5   6
ENDBRANCH   2   4
ENDBRANCH   1   2
BRANCH   1  16
ATOM     16  C   UNL     1      32.235  -2.942  22.983  1.00  0.00     0.163 C 
ATOM     17  O   UNL     1      31.333  -2.692  22.137  1.00  0.00    -0.294 OA
BRANCH  16  18
ATOM     18  C   UNL     1      32.257  -2.253  24.287  1.00  0.00     0.048 C 
ATOM     19  C   UNL     1      31.989  -2.877  25.440  1.00  0.00     0.012 C 
BRANCH  19  20
ATOM     20  C   UNL     1      32.121  -2.212  26.758  1.00  0.00    -0.022 A 
ATOM     21  C   UNL     1      31.120  -1.361  27.263  1.00  0.00     0.058 A 
ATOM     22  C   UNL     1      33.301  -2.390  27.494  1.00  0.00     0.012 A 
ATOM     23  C   UNL     1      31.280  -0.718  28.507  1.00  0.00     0.161 A 
ATOM     24  C   UNL     1      33.464  -1.761  28.729  1.00  0.00     0.051 A 
ATOM     25  C   UNL     1      32.461  -0.931  29.241  1.00  0.00     0.157 A 
BRANCH  23  26
ATOM     26  O   UNL     1      30.296   0.135  29.034  1.00  0.00    -0.493 OA
ATOM     27  C   UNL     1      30.465   1.534  29.238  1.00  0.00     0.278 C 
ENDBRANCH  23  26
BRANCH  25  28
ATOM     28  O   UNL     1      32.659  -0.320  30.479  1.00  0.00    -0.504 OA
ATOM     29  H   UNL     1      32.693  -0.848  31.342  1.00  0.00     0.293 HD
ENDBRANCH  25  28
ENDBRANCH  19  20
ENDBRANCH  16  18
ENDBRANCH   1  16
TORSDOF 10
ENDMDL
MODEL 20
REMARK VINA RESULT:    -5.690      2.968      5.972
REMARK INTER + INTRA:          -9.718
REMARK INTER:                  -8.895
REMARK INTRA:                  -0.823
REMARK UNBOUND:                -1.034
REMARK SMILES COc1cc(/C=C/C(=O)CC(=O)/C=C/c2ccc(O)c(OC)c2)ccc1O
REMARK SMILES IDX 10 1 8 2 9 3 7 4 6 5 5 6 3 7 26 8 4 9 25 10 24 11 2 12 1 13
REMARK SMILES IDX 27 14 11 16 12 17 13 18 14 19 15 20 23 21 16 22 20 23 17 24
REMARK SMILES IDX 18 25 21 26 22 27 19 28
REMARK H PARENT 27 15 19 29
REMARK Flexibility Score: inf
ROOT
ATOM      1  C   UNL     1      31.866  -3.569  23.920  1.00  0.00     0.160 C 
ENDROOT
BRANCH   1   2
ATOM      2  C   UNL     1      33.295  -3.647  23.467  1.00  0.00     0.163 C 
ATOM      3  O   UNL     1      34.211  -3.755  24.327  1.00  0.00    -0.294 OA
BRANCH   2   4
ATOM      4  C   UNL     1      33.620  -3.529  22.031  1.00  0.00     0.048 C 
ATOM      5  C   UNL     1      34.137  -2.411  21.503  1.00  0.00     0.012 C 
BRANCH   5   6
ATOM      6  C   UNL     1      34.365  -2.224  20.048  1.00  0.00    -0.022 A 
ATOM      7  C   UNL     1      35.749  -1.559  18.138  1.00  0.00     0.161 A 
ATOM      8  C   UNL     1      34.714  -1.941  17.267  1.00  0.00     0.157 A 
ATOM      9  C   UNL     1      35.565  -1.696  19.530  1.00  0.00     0.058 A 
ATOM     10  C   UNL     1      33.517  -2.444  17.781  1.00  0.00     0.051 A 
ATOM     11  C   UNL     1      33.341  -2.581  19.159  1.00  0.00     0.012 A 
BRANCH   7  12
ATOM     12  O   UNL     1      36.941  -1.054  17.593  1.00  0.00    -0.493 OA
ATOM     13  C   UNL     1      37.209   0.326  17.371  1.00  0.00     0.278 C 
ENDBRANCH   7  12
BRANCH   8  14
ATOM     14  O   UNL     1      34.859  -1.830  15.884  1.00  0.00    -0.504 OA
ATOM     15  H   UNL     1      35.767  -1.812  15.435  1.00  0.00     0.293 HD
ENDBRANCH   8  14
ENDBRANCH   5   6
ENDBRANCH   2   4
ENDBRANCH   1   2
BRANCH   1  16
ATOM     16  C   UNL     1      31.480  -2.136  24.150  1.00  0.00     0.163 C 
ATOM     17  O   UNL     1      31.090  -1.434  23.178  1.00  0.00    -0.294 OA
BRANCH  16  18
ATOM     18  C   UNL     1      31.503  -1.583  25.519  1.00  0.00     0.048 C 
ATOM     19  C   UNL     1      32.638  -1.263  26.150  1.00  0.00     0.012 C 
BRANCH  19  20
ATOM     20  C   UNL     1      32.655  -0.604  27.477  1.00  0.00    -0.022 A 
ATOM     21  C   UNL     1      31.561   0.151  27.945  1.00  0.00     0.058 A 
ATOM     22  C   UNL     1      33.812  -0.686  28.263  1.00  0.00     0.012 A 
ATOM     23  C   UNL     1      31.611   0.791  29.199  1.00  0.00     0.161 A 
ATOM     24  C   UNL     1      33.866  -0.059  29.509  1.00  0.00     0.051 A 
ATOM     25  C   UNL     1      32.773   0.674  29.983  1.00  0.00     0.157 A 
BRANCH  23  26
ATOM     26  O   UNL     1      30.534   1.549  29.689  1.00  0.00    -0.493 OA
ATOM     27  C   UNL     1      29.458   2.032  28.892  1.00  0.00     0.278 C 
ENDBRANCH  23  26
BRANCH  25  28
ATOM     28  O   UNL     1      32.864   1.286  31.233  1.00  0.00    -0.504 OA
ATOM     29  H   UNL     1      32.105   1.259  31.903  1.00  0.00     0.293 HD
ENDBRANCH  25  28
ENDBRANCH  19  20
ENDBRANCH  16  18
ENDBRANCH   1  16
TORSDOF 10
ENDMDL
