REMARK SMILES COc1cc(/C=C/C(=O)CC(=O)/C=C/c2ccc(O)cc2)ccc1O
REMARK SMILES IDX 10 1 8 2 9 3 7 4 6 5 5 6 3 7 24 8 4 9 23 10 22 11 2 12 1 13
REMARK SMILES IDX 25 14 11 16 12 17 13 18 14 19 15 20 16 21 21 22 17 23 20 24
REMARK SMILES IDX 18 25 19 26
REMARK H PARENT 25 15 19 27
REMARK Flexibility Score: inf
ROOT
ATOM      1  C   UNL     1      -2.809  -0.030   2.622  1.00  0.00     0.160 C 
ENDROOT
BRANCH   1   2
ATOM      2  C   UNL     1      -3.080  -1.357   1.975  1.00  0.00     0.163 C 
ATOM      3  O   UNL     1      -4.253  -1.820   1.976  1.00  0.00    -0.294 OA
BRANCH   2   4
ATOM      4  C   UNL     1      -1.985  -2.080   1.299  1.00  0.00     0.048 C 
ATOM      5  C   UNL     1      -2.194  -3.161   0.537  1.00  0.00     0.012 C 
BRANCH   5   6
ATOM      6  C   UNL     1      -1.110  -3.816  -0.232  1.00  0.00    -0.022 A 
ATOM      7  C   UNL     1       0.998  -3.730  -1.477  1.00  0.00     0.161 A 
ATOM      8  C   UNL     1       0.885  -5.107  -1.740  1.00  0.00     0.157 A 
ATOM      9  C   UNL     1      -0.007  -3.090  -0.725  1.00  0.00     0.058 A 
ATOM     10  C   UNL     1      -0.219  -5.823  -1.268  1.00  0.00     0.051 A 
ATOM     11  C   UNL     1      -1.214  -5.182  -0.527  1.00  0.00     0.012 A 
BRANCH   7  12
ATOM     12  O   UNL     1       2.107  -3.030  -1.980  1.00  0.00    -0.493 OA
ATOM     13  C   UNL     1       2.335  -1.636  -1.797  1.00  0.00     0.278 C 
ENDBRANCH   7  12
BRANCH   8  14
ATOM     14  O   UNL     1       1.860  -5.782  -2.476  1.00  0.00    -0.504 OA
ATOM     15  H   UNL     1       2.679  -5.314  -2.843  1.00  0.00     0.293 HD
ENDBRANCH   8  14
ENDBRANCH   5   6
ENDBRANCH   2   4
ENDBRANCH   1   2
BRANCH   1  16
ATOM     16  C   UNL     1      -2.534   1.006   1.571  1.00  0.00     0.163 C 
ATOM     17  O   UNL     1      -3.487   1.703   1.126  1.00  0.00    -0.294 OA
BRANCH  16  18
ATOM     18  C   UNL     1      -1.173   1.149   1.016  1.00  0.00     0.048 C 
ATOM     19  C   UNL     1      -0.933   1.804  -0.128  1.00  0.00     0.012 C 
BRANCH  19  20
ATOM     20  C   UNL     1       0.405   1.865  -0.766  1.00  0.00    -0.025 A 
ATOM     21  C   UNL     1       1.600   1.708  -0.035  1.00  0.00     0.012 A 
ATOM     22  C   UNL     1       0.482   2.100  -2.149  1.00  0.00     0.012 A 
ATOM     23  C   UNL     1       2.838   1.760  -0.684  1.00  0.00     0.047 A 
ATOM     24  C   UNL     1       1.722   2.148  -2.794  1.00  0.00     0.047 A 
ATOM     25  C   UNL     1       2.901   1.975  -2.066  1.00  0.00     0.115 A 
BRANCH  25  26
ATOM     26  O   UNL     1       4.129   2.019  -2.723  1.00  0.00    -0.508 OA
ATOM     27  H   UNL     1       5.001   1.895  -2.223  1.00  0.00     0.293 HD
ENDBRANCH  25  26
ENDBRANCH  19  20
ENDBRANCH  16  18
ENDBRANCH   1  16
TORSDOF 9
