MODEL 1
REMARK VINA RESULT:    -9.155      0.000      0.000
REMARK INTER + INTRA:         -14.499
REMARK INTER:                 -13.436
REMARK INTRA:                  -1.063
REMARK UNBOUND:                -1.063
REMARK SMILES COc1cc(/C=C/C(=O)CC(=O)/C=C/c2ccc(O)cc2)ccc1O
REMARK SMILES IDX 10 1 8 2 9 3 7 4 6 5 5 6 3 7 24 8 4 9 23 10 22 11 2 12 1 13
REMARK SMILES IDX 25 14 11 16 12 17 13 18 14 19 15 20 16 21 21 22 17 23 20 24
REMARK SMILES IDX 18 25 19 26
REMARK H PARENT 25 15 19 27
REMARK Flexibility Score: inf
ROOT
ATOM      1  C   UNL     1      17.599  11.006 -27.479  1.00  0.00     0.160 C 
ENDROOT
BRANCH   1   2
ATOM      2  C   UNL     1      17.764  12.328 -28.171  1.00  0.00     0.163 C 
ATOM      3  O   UNL     1      18.037  13.355 -27.491  1.00  0.00    -0.294 OA
BRANCH   2   4
ATOM      4  C   UNL     1      17.661  12.404 -29.641  1.00  0.00     0.048 C 
ATOM      5  C   UNL     1      17.244  11.376 -30.391  1.00  0.00     0.012 C 
BRANCH   5   6
ATOM      6  C   UNL     1      17.032  11.490 -31.853  1.00  0.00    -0.022 A 
ATOM      7  C   UNL     1      15.784  10.956 -33.893  1.00  0.00     0.161 A 
ATOM      8  C   UNL     1      16.719  11.693 -34.643  1.00  0.00     0.157 A 
ATOM      9  C   UNL     1      15.950  10.856 -32.497  1.00  0.00     0.058 A 
ATOM     10  C   UNL     1      17.803  12.305 -34.006  1.00  0.00     0.051 A 
ATOM     11  C   UNL     1      17.964  12.198 -32.623  1.00  0.00     0.012 A 
BRANCH   7  12
ATOM     12  O   UNL     1      14.716  10.335 -34.559  1.00  0.00    -0.493 OA
ATOM     13  C   UNL     1      13.359  10.764 -34.490  1.00  0.00     0.278 C 
ENDBRANCH   7  12
BRANCH   8  14
ATOM     14  O   UNL     1      16.590  11.823 -36.026  1.00  0.00    -0.504 OA
ATOM     15  H   UNL     1      17.210  12.407 -36.573  1.00  0.00     0.293 HD
ENDBRANCH   8  14
ENDBRANCH   5   6
ENDBRANCH   2   4
ENDBRANCH   1   2
BRANCH   1  16
ATOM     16  C   UNL     1      16.317  10.995 -26.697  1.00  0.00     0.163 C 
ATOM     17  O   UNL     1      16.362  10.918 -25.439  1.00  0.00    -0.294 OA
BRANCH  16  18
ATOM     18  C   UNL     1      15.022  10.997 -27.406  1.00  0.00     0.048 C 
ATOM     19  C   UNL     1      13.978  10.267 -26.989  1.00  0.00     0.012 C 
BRANCH  19  20
ATOM     20  C   UNL     1      12.705  10.162 -27.744  1.00  0.00    -0.025 A 
ATOM     21  C   UNL     1      12.315  11.115 -28.707  1.00  0.00     0.012 A 
ATOM     22  C   UNL     1      11.852   9.077 -27.479  1.00  0.00     0.012 A 
ATOM     23  C   UNL     1      11.111  10.965 -29.403  1.00  0.00     0.047 A 
ATOM     24  C   UNL     1      10.651   8.930 -28.180  1.00  0.00     0.047 A 
ATOM     25  C   UNL     1      10.279   9.869 -29.144  1.00  0.00     0.115 A 
BRANCH  25  26
ATOM     26  O   UNL     1       9.082   9.705 -29.839  1.00  0.00    -0.508 OA
ATOM     27  H   UNL     1       9.070   9.460 -30.821  1.00  0.00     0.293 HD
ENDBRANCH  25  26
ENDBRANCH  19  20
ENDBRANCH  16  18
ENDBRANCH   1  16
TORSDOF 9
ENDMDL
MODEL 2
REMARK VINA RESULT:    -8.906      2.137      3.566
REMARK INTER + INTRA:         -14.135
REMARK INTER:                 -13.173
REMARK INTRA:                  -0.962
REMARK UNBOUND:                -1.063
REMARK SMILES COc1cc(/C=C/C(=O)CC(=O)/C=C/c2ccc(O)cc2)ccc1O
REMARK SMILES IDX 10 1 8 2 9 3 7 4 6 5 5 6 3 7 24 8 4 9 23 10 22 11 2 12 1 13
REMARK SMILES IDX 25 14 11 16 12 17 13 18 14 19 15 20 16 21 21 22 17 23 20 24
REMARK SMILES IDX 18 25 19 26
REMARK H PARENT 25 15 19 27
REMARK Flexibility Score: inf
ROOT
ATOM      1  C   UNL     1      15.265  10.121 -23.910  1.00  0.00     0.160 C 
ENDROOT
BRANCH   1   2
ATOM      2  C   UNL     1      16.534   9.811 -24.649  1.00  0.00     0.163 C 
ATOM      3  O   UNL     1      17.216   8.804 -24.315  1.00  0.00    -0.294 OA
BRANCH   2   4
ATOM      4  C   UNL     1      16.943  10.654 -25.789  1.00  0.00     0.048 C 
ATOM      5  C   UNL     1      16.313  10.629 -26.970  1.00  0.00     0.012 C 
BRANCH   5   6
ATOM      6  C   UNL     1      16.652  11.557 -28.075  1.00  0.00    -0.022 A 
ATOM      7  C   UNL     1      16.252  12.476 -30.310  1.00  0.00     0.161 A 
ATOM      8  C   UNL     1      17.385  13.297 -30.162  1.00  0.00     0.157 A 
ATOM      9  C   UNL     1      15.894  11.605 -29.262  1.00  0.00     0.058 A 
ATOM     10  C   UNL     1      18.148  13.235 -28.992  1.00  0.00     0.051 A 
ATOM     11  C   UNL     1      17.790  12.366 -27.959  1.00  0.00     0.012 A 
BRANCH   7  12
ATOM     12  O   UNL     1      15.514  12.544 -31.503  1.00  0.00    -0.493 OA
ATOM     13  C   UNL     1      15.225  11.427 -32.339  1.00  0.00     0.278 C 
ENDBRANCH   7  12
BRANCH   8  14
ATOM     14  O   UNL     1      17.772  14.179 -31.172  1.00  0.00    -0.504 OA
ATOM     15  H   UNL     1      17.788  15.182 -31.035  1.00  0.00     0.293 HD
ENDBRANCH   8  14
ENDBRANCH   5   6
ENDBRANCH   2   4
ENDBRANCH   1   2
BRANCH   1  16
ATOM     16  C   UNL     1      14.144   9.272 -24.438  1.00  0.00     0.163 C 
ATOM     17  O   UNL     1      13.883   8.174 -23.875  1.00  0.00    -0.294 OA
BRANCH  16  18
ATOM     18  C   UNL     1      13.410   9.691 -25.649  1.00  0.00     0.048 C 
ATOM     19  C   UNL     1      12.322   9.043 -26.085  1.00  0.00     0.012 C 
BRANCH  19  20
ATOM     20  C   UNL     1      11.634   9.371 -27.358  1.00  0.00    -0.025 A 
ATOM     21  C   UNL     1      11.667  10.661 -27.925  1.00  0.00     0.012 A 
ATOM     22  C   UNL     1      10.913   8.360 -28.014  1.00  0.00     0.012 A 
ATOM     23  C   UNL     1      11.013  10.918 -29.135  1.00  0.00     0.047 A 
ATOM     24  C   UNL     1      10.264   8.621 -29.225  1.00  0.00     0.047 A 
ATOM     25  C   UNL     1      10.315   9.897 -29.790  1.00  0.00     0.115 A 
BRANCH  25  26
ATOM     26  O   UNL     1       9.669  10.141 -31.000  1.00  0.00    -0.508 OA
ATOM     27  H   UNL     1       8.740  10.545 -31.032  1.00  0.00     0.293 HD
ENDBRANCH  25  26
ENDBRANCH  19  20
ENDBRANCH  16  18
ENDBRANCH   1  16
TORSDOF 9
ENDMDL
MODEL 3
REMARK VINA RESULT:    -8.886      1.349      6.106
REMARK INTER + INTRA:         -14.106
REMARK INTER:                 -12.697
REMARK INTRA:                  -1.409
REMARK UNBOUND:                -1.063
REMARK SMILES COc1cc(/C=C/C(=O)CC(=O)/C=C/c2ccc(O)cc2)ccc1O
REMARK SMILES IDX 10 1 8 2 9 3 7 4 6 5 5 6 3 7 24 8 4 9 23 10 22 11 2 12 1 13
REMARK SMILES IDX 25 14 11 16 12 17 13 18 14 19 15 20 16 21 21 22 17 23 20 24
REMARK SMILES IDX 18 25 19 26
REMARK H PARENT 25 15 19 27
REMARK Flexibility Score: inf
ROOT
ATOM      1  C   UNL     1      17.221  12.882 -27.575  1.00  0.00     0.160 C 
ENDROOT
BRANCH   1   2
ATOM      2  C   UNL     1      17.241  11.446 -27.137  1.00  0.00     0.163 C 
ATOM      3  O   UNL     1      18.273  10.981 -26.582  1.00  0.00    -0.294 OA
BRANCH   2   4
ATOM      4  C   UNL     1      16.037  10.610 -27.311  1.00  0.00     0.048 C 
ATOM      5  C   UNL     1      14.795  11.104 -27.228  1.00  0.00     0.012 C 
BRANCH   5   6
ATOM      6  C   UNL     1      13.592  10.289 -27.516  1.00  0.00    -0.022 A 
ATOM      7  C   UNL     1      11.758   9.607 -28.990  1.00  0.00     0.161 A 
ATOM      8  C   UNL     1      11.275   8.760 -27.978  1.00  0.00     0.157 A 
ATOM      9  C   UNL     1      12.916  10.373 -28.750  1.00  0.00     0.058 A 
ATOM     10  C   UNL     1      11.933   8.691 -26.746  1.00  0.00     0.051 A 
ATOM     11  C   UNL     1      13.078   9.456 -26.513  1.00  0.00     0.012 A 
BRANCH   7  12
ATOM     12  O   UNL     1      11.067   9.672 -30.211  1.00  0.00    -0.493 OA
ATOM     13  C   UNL     1       9.953  10.523 -30.466  1.00  0.00     0.278 C 
ENDBRANCH   7  12
BRANCH   8  14
ATOM     14  O   UNL     1      10.134   7.980 -28.175  1.00  0.00    -0.504 OA
ATOM     15  H   UNL     1       9.354   7.993 -27.531  1.00  0.00     0.293 HD
ENDBRANCH   8  14
ENDBRANCH   5   6
ENDBRANCH   2   4
ENDBRANCH   1   2
BRANCH   1  16
ATOM     16  C   UNL     1      17.765  13.000 -28.969  1.00  0.00     0.163 C 
ATOM     17  O   UNL     1      18.964  13.355 -29.136  1.00  0.00    -0.294 OA
BRANCH  16  18
ATOM     18  C   UNL     1      16.878  12.775 -30.127  1.00  0.00     0.048 C 
ATOM     19  C   UNL     1      16.857  11.614 -30.796  1.00  0.00     0.012 C 
BRANCH  19  20
ATOM     20  C   UNL     1      16.061  11.399 -32.029  1.00  0.00    -0.025 A 
ATOM     21  C   UNL     1      16.629  11.467 -33.318  1.00  0.00     0.012 A 
ATOM     22  C   UNL     1      14.688  11.129 -31.907  1.00  0.00     0.012 A 
ATOM     23  C   UNL     1      15.840  11.243 -34.451  1.00  0.00     0.047 A 
ATOM     24  C   UNL     1      13.904  10.902 -33.043  1.00  0.00     0.047 A 
ATOM     25  C   UNL     1      14.477  10.955 -34.315  1.00  0.00     0.115 A 
BRANCH  25  26
ATOM     26  O   UNL     1      13.685  10.721 -35.438  1.00  0.00    -0.508 OA
ATOM     27  H   UNL     1      14.019  10.924 -36.372  1.00  0.00     0.293 HD
ENDBRANCH  25  26
ENDBRANCH  19  20
ENDBRANCH  16  18
ENDBRANCH   1  16
TORSDOF 9
ENDMDL
MODEL 4
REMARK VINA RESULT:    -8.799      1.002      2.179
REMARK INTER + INTRA:         -13.977
REMARK INTER:                 -13.148
REMARK INTRA:                  -0.829
REMARK UNBOUND:                -1.063
REMARK SMILES COc1cc(/C=C/C(=O)CC(=O)/C=C/c2ccc(O)cc2)ccc1O
REMARK SMILES IDX 10 1 8 2 9 3 7 4 6 5 5 6 3 7 24 8 4 9 23 10 22 11 2 12 1 13
REMARK SMILES IDX 25 14 11 16 12 17 13 18 14 19 15 20 16 21 21 22 17 23 20 24
REMARK SMILES IDX 18 25 19 26
REMARK H PARENT 25 15 19 27
REMARK Flexibility Score: inf
ROOT
ATOM      1  C   UNL     1      17.645  10.962 -27.652  1.00  0.00     0.160 C 
ENDROOT
BRANCH   1   2
ATOM      2  C   UNL     1      17.902  12.320 -28.238  1.00  0.00     0.163 C 
ATOM      3  O   UNL     1      18.285  13.258 -27.487  1.00  0.00    -0.294 OA
BRANCH   2   4
ATOM      4  C   UNL     1      17.757  12.530 -29.692  1.00  0.00     0.048 C 
ATOM      5  C   UNL     1      18.024  11.575 -30.591  1.00  0.00     0.012 C 
BRANCH   5   6
ATOM      6  C   UNL     1      17.768  11.750 -32.040  1.00  0.00    -0.022 A 
ATOM      7  C   UNL     1      18.422  12.564 -34.256  1.00  0.00     0.161 A 
ATOM      8  C   UNL     1      17.196  12.108 -34.772  1.00  0.00     0.157 A 
ATOM      9  C   UNL     1      18.699  12.385 -32.886  1.00  0.00     0.058 A 
ATOM     10  C   UNL     1      16.264  11.496 -33.929  1.00  0.00     0.051 A 
ATOM     11  C   UNL     1      16.543  11.325 -32.571  1.00  0.00     0.012 A 
BRANCH   7  12
ATOM     12  O   UNL     1      19.332  13.193 -35.121  1.00  0.00    -0.493 OA
ATOM     13  C   UNL     1      20.560  13.788 -34.710  1.00  0.00     0.278 C 
ENDBRANCH   7  12
BRANCH   8  14
ATOM     14  O   UNL     1      16.882  12.259 -36.124  1.00  0.00    -0.504 OA
ATOM     15  H   UNL     1      16.588  13.146 -36.513  1.00  0.00     0.293 HD
ENDBRANCH   8  14
ENDBRANCH   5   6
ENDBRANCH   2   4
ENDBRANCH   1   2
BRANCH   1  16
ATOM     16  C   UNL     1      16.374  10.981 -26.853  1.00  0.00     0.163 C 
ATOM     17  O   UNL     1      16.435  10.950 -25.594  1.00  0.00    -0.294 OA
BRANCH  16  18
ATOM     18  C   UNL     1      15.069  10.960 -27.545  1.00  0.00     0.048 C 
ATOM     19  C   UNL     1      14.023  10.268 -27.076  1.00  0.00     0.012 C 
BRANCH  19  20
ATOM     20  C   UNL     1      12.739  10.137 -27.808  1.00  0.00    -0.025 A 
ATOM     21  C   UNL     1      12.268  11.128 -28.694  1.00  0.00     0.012 A 
ATOM     22  C   UNL     1      11.959   8.988 -27.600  1.00  0.00     0.012 A 
ATOM     23  C   UNL     1      11.057  10.953 -29.372  1.00  0.00     0.047 A 
ATOM     24  C   UNL     1      10.750   8.816 -28.283  1.00  0.00     0.047 A 
ATOM     25  C   UNL     1      10.298   9.794 -29.171  1.00  0.00     0.115 A 
BRANCH  25  26
ATOM     26  O   UNL     1       9.095   9.606 -29.849  1.00  0.00    -0.508 OA
ATOM     27  H   UNL     1       8.487  10.384 -30.072  1.00  0.00     0.293 HD
ENDBRANCH  25  26
ENDBRANCH  19  20
ENDBRANCH  16  18
ENDBRANCH   1  16
TORSDOF 9
ENDMDL
MODEL 5
REMARK VINA RESULT:    -8.747      2.742      8.816
REMARK INTER + INTRA:         -13.901
REMARK INTER:                 -13.194
REMARK INTRA:                  -0.707
REMARK UNBOUND:                -1.063
REMARK SMILES COc1cc(/C=C/C(=O)CC(=O)/C=C/c2ccc(O)cc2)ccc1O
REMARK SMILES IDX 10 1 8 2 9 3 7 4 6 5 5 6 3 7 24 8 4 9 23 10 22 11 2 12 1 13
REMARK SMILES IDX 25 14 11 16 12 17 13 18 14 19 15 20 16 21 21 22 17 23 20 24
REMARK SMILES IDX 18 25 19 26
REMARK H PARENT 25 15 19 27
REMARK Flexibility Score: inf
ROOT
ATOM      1  C   UNL     1      17.062  12.775 -30.205  1.00  0.00     0.160 C 
ENDROOT
BRANCH   1   2
ATOM      2  C   UNL     1      17.705  12.627 -28.857  1.00  0.00     0.163 C 
ATOM      3  O   UNL     1      18.794  13.217 -28.621  1.00  0.00    -0.294 OA
BRANCH   2   4
ATOM      4  C   UNL     1      17.032  11.838 -27.807  1.00  0.00     0.048 C 
ATOM      5  C   UNL     1      15.731  11.525 -27.859  1.00  0.00     0.012 C 
BRANCH   5   6
ATOM      6  C   UNL     1      15.084  10.638 -26.864  1.00  0.00    -0.022 A 
ATOM      7  C   UNL     1      13.307   9.088 -26.199  1.00  0.00     0.161 A 
ATOM      8  C   UNL     1      13.867   9.018 -24.910  1.00  0.00     0.157 A 
ATOM      9  C   UNL     1      13.920   9.905 -27.170  1.00  0.00     0.058 A 
ATOM     10  C   UNL     1      15.011   9.761 -24.601  1.00  0.00     0.051 A 
ATOM     11  C   UNL     1      15.610  10.572 -25.567  1.00  0.00     0.012 A 
BRANCH   7  12
ATOM     12  O   UNL     1      12.147   8.348 -26.477  1.00  0.00    -0.493 OA
ATOM     13  C   UNL     1      11.043   8.829 -27.238  1.00  0.00     0.278 C 
ENDBRANCH   7  12
BRANCH   8  14
ATOM     14  O   UNL     1      13.296   8.218 -23.919  1.00  0.00    -0.504 OA
ATOM     15  H   UNL     1      13.079   7.242 -24.074  1.00  0.00     0.293 HD
ENDBRANCH   8  14
ENDBRANCH   5   6
ENDBRANCH   2   4
ENDBRANCH   1   2
BRANCH   1  16
ATOM     16  C   UNL     1      17.499  11.657 -31.107  1.00  0.00     0.163 C 
ATOM     17  O   UNL     1      17.197  10.469 -30.810  1.00  0.00    -0.294 OA
BRANCH  16  18
ATOM     18  C   UNL     1      18.338  11.949 -32.287  1.00  0.00     0.048 C 
ATOM     19  C   UNL     1      18.799  13.179 -32.551  1.00  0.00     0.012 C 
BRANCH  19  20
ATOM     20  C   UNL     1      19.546  13.522 -33.786  1.00  0.00    -0.025 A 
ATOM     21  C   UNL     1      20.698  14.334 -33.773  1.00  0.00     0.012 A 
ATOM     22  C   UNL     1      19.078  13.028 -35.015  1.00  0.00     0.012 A 
ATOM     23  C   UNL     1      21.377  14.618 -34.962  1.00  0.00     0.047 A 
ATOM     24  C   UNL     1      19.762  13.312 -36.202  1.00  0.00     0.047 A 
ATOM     25  C   UNL     1      20.912  14.103 -36.179  1.00  0.00     0.115 A 
BRANCH  25  26
ATOM     26  O   UNL     1      21.587  14.373 -37.368  1.00  0.00    -0.508 OA
ATOM     27  H   UNL     1      21.848  13.632 -38.007  1.00  0.00     0.293 HD
ENDBRANCH  25  26
ENDBRANCH  19  20
ENDBRANCH  16  18
ENDBRANCH   1  16
TORSDOF 9
ENDMDL
MODEL 6
REMARK VINA RESULT:    -8.464      2.886      4.233
REMARK INTER + INTRA:         -13.487
REMARK INTER:                 -12.999
REMARK INTRA:                  -0.487
REMARK UNBOUND:                -1.063
REMARK SMILES COc1cc(/C=C/C(=O)CC(=O)/C=C/c2ccc(O)cc2)ccc1O
REMARK SMILES IDX 10 1 8 2 9 3 7 4 6 5 5 6 3 7 24 8 4 9 23 10 22 11 2 12 1 13
REMARK SMILES IDX 25 14 11 16 12 17 13 18 14 19 15 20 16 21 21 22 17 23 20 24
REMARK SMILES IDX 18 25 19 26
REMARK H PARENT 25 15 19 27
REMARK Flexibility Score: inf
ROOT
ATOM      1  C   UNL     1      17.355  11.651 -29.511  1.00  0.00     0.160 C 
ENDROOT
BRANCH   1   2
ATOM      2  C   UNL     1      18.239  12.711 -30.100  1.00  0.00     0.163 C 
ATOM      3  O   UNL     1      18.800  13.546 -29.339  1.00  0.00    -0.294 OA
BRANCH   2   4
ATOM      4  C   UNL     1      18.487  12.732 -31.555  1.00  0.00     0.048 C 
ATOM      5  C   UNL     1      19.326  13.601 -32.134  1.00  0.00     0.012 C 
BRANCH   5   6
ATOM      6  C   UNL     1      19.660  13.546 -33.576  1.00  0.00    -0.022 A 
ATOM      7  C   UNL     1      20.879  14.373 -35.534  1.00  0.00     0.161 A 
ATOM      8  C   UNL     1      20.205  13.435 -36.335  1.00  0.00     0.157 A 
ATOM      9  C   UNL     1      20.598  14.426 -34.154  1.00  0.00     0.058 A 
ATOM     10  C   UNL     1      19.260  12.576 -35.765  1.00  0.00     0.051 A 
ATOM     11  C   UNL     1      18.983  12.636 -34.398  1.00  0.00     0.012 A 
BRANCH   7  12
ATOM     12  O   UNL     1      21.809  15.238 -36.135  1.00  0.00    -0.493 OA
ATOM     13  C   UNL     1      23.223  15.110 -36.023  1.00  0.00     0.278 C 
ENDBRANCH   7  12
BRANCH   8  14
ATOM     14  O   UNL     1      20.456  13.344 -37.705  1.00  0.00    -0.504 OA
ATOM     15  H   UNL     1      21.190  13.878 -38.155  1.00  0.00     0.293 HD
ENDBRANCH   8  14
ENDBRANCH   5   6
ENDBRANCH   2   4
ENDBRANCH   1   2
BRANCH   1  16
ATOM     16  C   UNL     1      15.916  12.066 -29.620  1.00  0.00     0.163 C 
ATOM     17  O   UNL     1      15.638  13.245 -29.971  1.00  0.00    -0.294 OA
BRANCH  16  18
ATOM     18  C   UNL     1      14.846  11.120 -29.244  1.00  0.00     0.048 C 
ATOM     19  C   UNL     1      13.953  11.395 -28.285  1.00  0.00     0.012 C 
BRANCH  19  20
ATOM     20  C   UNL     1      12.941  10.419 -27.810  1.00  0.00    -0.025 A 
ATOM     21  C   UNL     1      11.663  10.309 -28.395  1.00  0.00     0.012 A 
ATOM     22  C   UNL     1      13.267   9.583 -26.729  1.00  0.00     0.012 A 
ATOM     23  C   UNL     1      10.748   9.364 -27.921  1.00  0.00     0.047 A 
ATOM     24  C   UNL     1      12.349   8.637 -26.261  1.00  0.00     0.047 A 
ATOM     25  C   UNL     1      11.091   8.522 -26.856  1.00  0.00     0.115 A 
BRANCH  25  26
ATOM     26  O   UNL     1      10.189   7.571 -26.383  1.00  0.00    -0.508 OA
ATOM     27  H   UNL     1       9.317   7.841 -25.946  1.00  0.00     0.293 HD
ENDBRANCH  25  26
ENDBRANCH  19  20
ENDBRANCH  16  18
ENDBRANCH   1  16
TORSDOF 9
ENDMDL
MODEL 7
REMARK VINA RESULT:    -8.421      1.273      6.441
REMARK INTER + INTRA:         -13.423
REMARK INTER:                 -12.074
REMARK INTRA:                  -1.349
REMARK UNBOUND:                -1.063
REMARK SMILES COc1cc(/C=C/C(=O)CC(=O)/C=C/c2ccc(O)cc2)ccc1O
REMARK SMILES IDX 10 1 8 2 9 3 7 4 6 5 5 6 3 7 24 8 4 9 23 10 22 11 2 12 1 13
REMARK SMILES IDX 25 14 11 16 12 17 13 18 14 19 15 20 16 21 21 22 17 23 20 24
REMARK SMILES IDX 18 25 19 26
REMARK H PARENT 25 15 19 27
REMARK Flexibility Score: inf
ROOT
ATOM      1  C   UNL     1      16.988  12.728 -27.248  1.00  0.00     0.160 C 
ENDROOT
BRANCH   1   2
ATOM      2  C   UNL     1      16.766  11.286 -26.896  1.00  0.00     0.163 C 
ATOM      3  O   UNL     1      17.684  10.638 -26.323  1.00  0.00    -0.294 OA
BRANCH   2   4
ATOM      4  C   UNL     1      15.461  10.656 -27.174  1.00  0.00     0.048 C 
ATOM      5  C   UNL     1      14.419  11.337 -27.668  1.00  0.00     0.012 C 
BRANCH   5   6
ATOM      6  C   UNL     1      13.148  10.682 -28.054  1.00  0.00    -0.022 A 
ATOM      7  C   UNL     1      11.601   8.784 -27.986  1.00  0.00     0.161 A 
ATOM      8  C   UNL     1      10.747   9.463 -28.873  1.00  0.00     0.157 A 
ATOM      9  C   UNL     1      12.803   9.398 -27.584  1.00  0.00     0.058 A 
ATOM     10  C   UNL     1      11.098  10.728 -29.354  1.00  0.00     0.051 A 
ATOM     11  C   UNL     1      12.293  11.330 -28.956  1.00  0.00     0.012 A 
BRANCH   7  12
ATOM     12  O   UNL     1      11.233   7.506 -27.533  1.00  0.00    -0.493 OA
ATOM     13  C   UNL     1      10.684   7.229 -26.248  1.00  0.00     0.278 C 
ENDBRANCH   7  12
BRANCH   8  14
ATOM     14  O   UNL     1       9.543   8.894 -29.293  1.00  0.00    -0.504 OA
ATOM     15  H   UNL     1       8.738   9.456 -29.539  1.00  0.00     0.293 HD
ENDBRANCH   8  14
ENDBRANCH   5   6
ENDBRANCH   2   4
ENDBRANCH   1   2
BRANCH   1  16
ATOM     16  C   UNL     1      18.121  12.849 -28.225  1.00  0.00     0.163 C 
ATOM     17  O   UNL     1      19.245  13.255 -27.820  1.00  0.00    -0.294 OA
BRANCH  16  18
ATOM     18  C   UNL     1      17.894  12.565 -29.656  1.00  0.00     0.048 C 
ATOM     19  C   UNL     1      16.666  12.540 -30.193  1.00  0.00     0.012 C 
BRANCH  19  20
ATOM     20  C   UNL     1      16.401  12.146 -31.598  1.00  0.00    -0.025 A 
ATOM     21  C   UNL     1      17.379  12.241 -32.609  1.00  0.00     0.012 A 
ATOM     22  C   UNL     1      15.122  11.671 -31.935  1.00  0.00     0.012 A 
ATOM     23  C   UNL     1      17.084  11.844 -33.918  1.00  0.00     0.047 A 
ATOM     24  C   UNL     1      14.833  11.273 -33.244  1.00  0.00     0.047 A 
ATOM     25  C   UNL     1      15.812  11.355 -34.236  1.00  0.00     0.115 A 
BRANCH  25  26
ATOM     26  O   UNL     1      15.512  10.948 -35.535  1.00  0.00    -0.508 OA
ATOM     27  H   UNL     1      14.604  11.126 -35.948  1.00  0.00     0.293 HD
ENDBRANCH  25  26
ENDBRANCH  19  20
ENDBRANCH  16  18
ENDBRANCH   1  16
TORSDOF 9
ENDMDL
MODEL 8
REMARK VINA RESULT:    -8.365      2.592      4.080
REMARK INTER + INTRA:         -13.341
REMARK INTER:                 -12.671
REMARK INTRA:                  -0.670
REMARK UNBOUND:                -1.063
REMARK SMILES COc1cc(/C=C/C(=O)CC(=O)/C=C/c2ccc(O)cc2)ccc1O
REMARK SMILES IDX 10 1 8 2 9 3 7 4 6 5 5 6 3 7 24 8 4 9 23 10 22 11 2 12 1 13
REMARK SMILES IDX 25 14 11 16 12 17 13 18 14 19 15 20 16 21 21 22 17 23 20 24
REMARK SMILES IDX 18 25 19 26
REMARK H PARENT 25 15 19 27
REMARK Flexibility Score: inf
ROOT
ATOM      1  C   UNL     1      15.508  12.143 -30.951  1.00  0.00     0.160 C 
ENDROOT
BRANCH   1   2
ATOM      2  C   UNL     1      15.348  11.595 -32.340  1.00  0.00     0.163 C 
ATOM      3  O   UNL     1      14.294  10.974 -32.644  1.00  0.00    -0.294 OA
BRANCH   2   4
ATOM      4  C   UNL     1      16.400  11.835 -33.347  1.00  0.00     0.048 C 
ATOM      5  C   UNL     1      16.700  13.058 -33.803  1.00  0.00     0.012 C 
BRANCH   5   6
ATOM      6  C   UNL     1      17.830  13.309 -34.727  1.00  0.00    -0.022 A 
ATOM      7  C   UNL     1      18.720  13.751 -36.967  1.00  0.00     0.161 A 
ATOM      8  C   UNL     1      20.024  13.718 -36.442  1.00  0.00     0.157 A 
ATOM      9  C   UNL     1      17.627  13.541 -36.103  1.00  0.00     0.058 A 
ATOM     10  C   UNL     1      20.227  13.468 -35.081  1.00  0.00     0.051 A 
ATOM     11  C   UNL     1      19.140  13.257 -34.231  1.00  0.00     0.012 A 
BRANCH   7  12
ATOM     12  O   UNL     1      18.545  13.984 -38.341  1.00  0.00    -0.493 OA
ATOM     13  C   UNL     1      17.588  13.318 -39.159  1.00  0.00     0.278 C 
ENDBRANCH   7  12
BRANCH   8  14
ATOM     14  O   UNL     1      21.135  13.926 -37.260  1.00  0.00    -0.504 OA
ATOM     15  H   UNL     1      21.231  13.480 -38.164  1.00  0.00     0.293 HD
ENDBRANCH   8  14
ENDBRANCH   5   6
ENDBRANCH   2   4
ENDBRANCH   1   2
BRANCH   1  16
ATOM     16  C   UNL     1      16.002  11.066 -30.029  1.00  0.00     0.163 C 
ATOM     17  O   UNL     1      17.244  10.874 -29.913  1.00  0.00    -0.294 OA
BRANCH  16  18
ATOM     18  C   UNL     1      15.037  10.196 -29.328  1.00  0.00     0.048 C 
ATOM     19  C   UNL     1      13.720  10.444 -29.329  1.00  0.00     0.012 C 
BRANCH  19  20
ATOM     20  C   UNL     1      12.742   9.654 -28.541  1.00  0.00    -0.025 A 
ATOM     21  C   UNL     1      11.556   9.141 -29.102  1.00  0.00     0.012 A 
ATOM     22  C   UNL     1      13.006   9.420 -27.181  1.00  0.00     0.012 A 
ATOM     23  C   UNL     1      10.671   8.390 -28.321  1.00  0.00     0.047 A 
ATOM     24  C   UNL     1      12.120   8.666 -26.405  1.00  0.00     0.047 A 
ATOM     25  C   UNL     1      10.954   8.147 -26.972  1.00  0.00     0.115 A 
BRANCH  25  26
ATOM     26  O   UNL     1      10.084   7.392 -26.188  1.00  0.00    -0.508 OA
ATOM     27  H   UNL     1       9.535   7.816 -25.450  1.00  0.00     0.293 HD
ENDBRANCH  25  26
ENDBRANCH  19  20
ENDBRANCH  16  18
ENDBRANCH   1  16
TORSDOF 9
ENDMDL
MODEL 9
REMARK VINA RESULT:    -8.243      2.710      9.024
REMARK INTER + INTRA:         -13.162
REMARK INTER:                 -12.490
REMARK INTRA:                  -0.672
REMARK UNBOUND:                -1.063
REMARK SMILES COc1cc(/C=C/C(=O)CC(=O)/C=C/c2ccc(O)cc2)ccc1O
REMARK SMILES IDX 10 1 8 2 9 3 7 4 6 5 5 6 3 7 24 8 4 9 23 10 22 11 2 12 1 13
REMARK SMILES IDX 25 14 11 16 12 17 13 18 14 19 15 20 16 21 21 22 17 23 20 24
REMARK SMILES IDX 18 25 19 26
REMARK H PARENT 25 15 19 27
REMARK Flexibility Score: inf
ROOT
ATOM      1  C   UNL     1      16.334  10.804 -31.569  1.00  0.00     0.160 C 
ENDROOT
BRANCH   1   2
ATOM      2  C   UNL     1      15.663  11.577 -30.471  1.00  0.00     0.163 C 
ATOM      3  O   UNL     1      15.808  12.829 -30.415  1.00  0.00    -0.294 OA
BRANCH   2   4
ATOM      4  C   UNL     1      14.800  10.875 -29.501  1.00  0.00     0.048 C 
ATOM      5  C   UNL     1      13.483  10.719 -29.685  1.00  0.00     0.012 C 
BRANCH   5   6
ATOM      6  C   UNL     1      12.639   9.916 -28.770  1.00  0.00    -0.022 A 
ATOM      7  C   UNL     1      12.125   9.024 -26.547  1.00  0.00     0.161 A 
ATOM      8  C   UNL     1      11.034   8.324 -27.093  1.00  0.00     0.157 A 
ATOM      9  C   UNL     1      12.926   9.815 -27.393  1.00  0.00     0.058 A 
ATOM     10  C   UNL     1      10.761   8.408 -28.462  1.00  0.00     0.051 A 
ATOM     11  C   UNL     1      11.562   9.191 -29.296  1.00  0.00     0.012 A 
BRANCH   7  12
ATOM     12  O   UNL     1      12.389   8.906 -25.172  1.00  0.00    -0.493 OA
ATOM     13  C   UNL     1      13.687   8.744 -24.609  1.00  0.00     0.278 C 
ENDBRANCH   7  12
BRANCH   8  14
ATOM     14  O   UNL     1      10.211   7.532 -26.291  1.00  0.00    -0.504 OA
ATOM     15  H   UNL     1      10.400   7.382 -25.308  1.00  0.00     0.293 HD
ENDBRANCH   8  14
ENDBRANCH   5   6
ENDBRANCH   2   4
ENDBRANCH   1   2
BRANCH   1  16
ATOM     16  C   UNL     1      15.862  11.297 -32.905  1.00  0.00     0.163 C 
ATOM     17  O   UNL     1      14.849  10.765 -33.438  1.00  0.00    -0.294 OA
BRANCH  16  18
ATOM     18  C   UNL     1      16.625  12.343 -33.616  1.00  0.00     0.048 C 
ATOM     19  C   UNL     1      17.962  12.322 -33.695  1.00  0.00     0.012 C 
BRANCH  19  20
ATOM     20  C   UNL     1      18.759  13.416 -34.302  1.00  0.00    -0.025 A 
ATOM     21  C   UNL     1      20.079  13.228 -34.759  1.00  0.00     0.012 A 
ATOM     22  C   UNL     1      18.178  14.691 -34.414  1.00  0.00     0.012 A 
ATOM     23  C   UNL     1      20.785  14.288 -35.338  1.00  0.00     0.047 A 
ATOM     24  C   UNL     1      18.887  15.747 -34.996  1.00  0.00     0.047 A 
ATOM     25  C   UNL     1      20.189  15.548 -35.462  1.00  0.00     0.115 A 
BRANCH  25  26
ATOM     26  O   UNL     1      20.881  16.608 -36.045  1.00  0.00    -0.508 OA
ATOM     27  H   UNL     1      21.878  16.558 -36.215  1.00  0.00     0.293 HD
ENDBRANCH  25  26
ENDBRANCH  19  20
ENDBRANCH  16  18
ENDBRANCH   1  16
TORSDOF 9
ENDMDL
MODEL 10
REMARK VINA RESULT:    -8.160      2.586      8.397
REMARK INTER + INTRA:         -13.040
REMARK INTER:                 -12.555
REMARK INTRA:                  -0.485
REMARK UNBOUND:                -1.063
REMARK SMILES COc1cc(/C=C/C(=O)CC(=O)/C=C/c2ccc(O)cc2)ccc1O
REMARK SMILES IDX 10 1 8 2 9 3 7 4 6 5 5 6 3 7 24 8 4 9 23 10 22 11 2 12 1 13
REMARK SMILES IDX 25 14 11 16 12 17 13 18 14 19 15 20 16 21 21 22 17 23 20 24
REMARK SMILES IDX 18 25 19 26
REMARK H PARENT 25 15 19 27
REMARK Flexibility Score: inf
ROOT
ATOM      1  C   UNL     1      17.937  13.597 -29.824  1.00  0.00     0.160 C 
ENDROOT
BRANCH   1   2
ATOM      2  C   UNL     1      18.075  12.946 -28.478  1.00  0.00     0.163 C 
ATOM      3  O   UNL     1      19.056  13.242 -27.743  1.00  0.00    -0.294 OA
BRANCH   2   4
ATOM      4  C   UNL     1      17.035  12.011 -28.007  1.00  0.00     0.048 C 
ATOM      5  C   UNL     1      17.052  11.467 -26.783  1.00  0.00     0.012 C 
BRANCH   5   6
ATOM      6  C   UNL     1      15.950  10.619 -26.272  1.00  0.00    -0.022 A 
ATOM      7  C   UNL     1      13.773   9.529 -26.543  1.00  0.00     0.161 A 
ATOM      8  C   UNL     1      13.859   9.056 -25.221  1.00  0.00     0.157 A 
ATOM      9  C   UNL     1      14.821  10.315 -27.060  1.00  0.00     0.058 A 
ATOM     10  C   UNL     1      14.968   9.375 -24.433  1.00  0.00     0.051 A 
ATOM     11  C   UNL     1      16.002  10.158 -24.950  1.00  0.00     0.012 A 
BRANCH   7  12
ATOM     12  O   UNL     1      12.638   9.211 -27.306  1.00  0.00    -0.493 OA
ATOM     13  C   UNL     1      12.513   9.443 -28.706  1.00  0.00     0.278 C 
ENDBRANCH   7  12
BRANCH   8  14
ATOM     14  O   UNL     1      12.845   8.270 -24.670  1.00  0.00    -0.504 OA
ATOM     15  H   UNL     1      12.484   8.431 -23.738  1.00  0.00     0.293 HD
ENDBRANCH   8  14
ENDBRANCH   5   6
ENDBRANCH   2   4
ENDBRANCH   1   2
BRANCH   1  16
ATOM     16  C   UNL     1      18.550  12.724 -30.880  1.00  0.00     0.163 C 
ATOM     17  O   UNL     1      19.255  11.736 -30.534  1.00  0.00    -0.294 OA
BRANCH  16  18
ATOM     18  C   UNL     1      18.385  13.068 -32.307  1.00  0.00     0.048 C 
ATOM     19  C   UNL     1      18.643  12.192 -33.287  1.00  0.00     0.012 C 
BRANCH  19  20
ATOM     20  C   UNL     1      18.597  12.545 -34.728  1.00  0.00    -0.025 A 
ATOM     21  C   UNL     1      17.526  12.170 -35.565  1.00  0.00     0.012 A 
ATOM     22  C   UNL     1      19.666  13.271 -35.279  1.00  0.00     0.012 A 
ATOM     23  C   UNL     1      17.521  12.539 -36.914  1.00  0.00     0.047 A 
ATOM     24  C   UNL     1      19.655  13.640 -36.628  1.00  0.00     0.047 A 
ATOM     25  C   UNL     1      18.583  13.279 -37.447  1.00  0.00     0.115 A 
BRANCH  25  26
ATOM     26  O   UNL     1      18.582  13.659 -38.787  1.00  0.00    -0.508 OA
ATOM     27  H   UNL     1      19.202  13.225 -39.460  1.00  0.00     0.293 HD
ENDBRANCH  25  26
ENDBRANCH  19  20
ENDBRANCH  16  18
ENDBRANCH   1  16
TORSDOF 9
ENDMDL
MODEL 11
REMARK VINA RESULT:    -8.078      3.013      4.260
REMARK INTER + INTRA:         -12.920
REMARK INTER:                 -12.318
REMARK INTRA:                  -0.602
REMARK UNBOUND:                -1.063
REMARK SMILES COc1cc(/C=C/C(=O)CC(=O)/C=C/c2ccc(O)cc2)ccc1O
REMARK SMILES IDX 10 1 8 2 9 3 7 4 6 5 5 6 3 7 24 8 4 9 23 10 22 11 2 12 1 13
REMARK SMILES IDX 25 14 11 16 12 17 13 18 14 19 15 20 16 21 21 22 17 23 20 24
REMARK SMILES IDX 18 25 19 26
REMARK H PARENT 25 15 19 27
REMARK Flexibility Score: inf
ROOT
ATOM      1  C   UNL     1      15.981  12.319 -31.408  1.00  0.00     0.160 C 
ENDROOT
BRANCH   1   2
ATOM      2  C   UNL     1      17.334  11.814 -31.817  1.00  0.00     0.163 C 
ATOM      3  O   UNL     1      17.871  10.879 -31.163  1.00  0.00    -0.294 OA
BRANCH   2   4
ATOM      4  C   UNL     1      17.998  12.377 -33.009  1.00  0.00     0.048 C 
ATOM      5  C   UNL     1      19.141  13.071 -32.940  1.00  0.00     0.012 C 
BRANCH   5   6
ATOM      6  C   UNL     1      19.865  13.536 -34.147  1.00  0.00    -0.022 A 
ATOM      7  C   UNL     1      20.190  13.583 -36.574  1.00  0.00     0.161 A 
ATOM      8  C   UNL     1      21.319  14.404 -36.395  1.00  0.00     0.157 A 
ATOM      9  C   UNL     1      19.470  13.150 -35.444  1.00  0.00     0.058 A 
ATOM     10  C   UNL     1      21.721  14.771 -35.108  1.00  0.00     0.051 A 
ATOM     11  C   UNL     1      21.006  14.334 -33.991  1.00  0.00     0.012 A 
BRANCH   7  12
ATOM     12  O   UNL     1      19.819  13.213 -37.877  1.00  0.00    -0.493 OA
ATOM     13  C   UNL     1      18.477  13.012 -38.310  1.00  0.00     0.278 C 
ENDBRANCH   7  12
BRANCH   8  14
ATOM     14  O   UNL     1      22.058  14.861 -37.487  1.00  0.00    -0.504 OA
ATOM     15  H   UNL     1      21.782  15.675 -38.022  1.00  0.00     0.293 HD
ENDBRANCH   8  14
ENDBRANCH   5   6
ENDBRANCH   2   4
ENDBRANCH   1   2
BRANCH   1  16
ATOM     16  C   UNL     1      15.939  12.526 -29.922  1.00  0.00     0.163 C 
ATOM     17  O   UNL     1      16.836  13.220 -29.369  1.00  0.00    -0.294 OA
BRANCH  16  18
ATOM     18  C   UNL     1      14.898  11.859 -29.115  1.00  0.00     0.048 C 
ATOM     19  C   UNL     1      14.834  10.526 -28.991  1.00  0.00     0.012 C 
BRANCH  19  20
ATOM     20  C   UNL     1      13.735   9.826 -28.283  1.00  0.00    -0.025 A 
ATOM     21  C   UNL     1      12.597   9.330 -28.952  1.00  0.00     0.012 A 
ATOM     22  C   UNL     1      13.827   9.662 -26.890  1.00  0.00     0.012 A 
ATOM     23  C   UNL     1      11.593   8.664 -28.242  1.00  0.00     0.047 A 
ATOM     24  C   UNL     1      12.822   8.992 -26.185  1.00  0.00     0.047 A 
ATOM     25  C   UNL     1      11.706   8.490 -26.857  1.00  0.00     0.115 A 
BRANCH  25  26
ATOM     26  O   UNL     1      10.716   7.819 -26.142  1.00  0.00    -0.508 OA
ATOM     27  H   UNL     1       9.745   7.847 -26.430  1.00  0.00     0.293 HD
ENDBRANCH  25  26
ENDBRANCH  19  20
ENDBRANCH  16  18
ENDBRANCH   1  16
TORSDOF 9
ENDMDL
MODEL 12
REMARK VINA RESULT:    -8.016      2.560      8.662
REMARK INTER + INTRA:         -12.829
REMARK INTER:                 -12.114
REMARK INTRA:                  -0.715
REMARK UNBOUND:                -1.063
REMARK SMILES COc1cc(/C=C/C(=O)CC(=O)/C=C/c2ccc(O)cc2)ccc1O
REMARK SMILES IDX 10 1 8 2 9 3 7 4 6 5 5 6 3 7 24 8 4 9 23 10 22 11 2 12 1 13
REMARK SMILES IDX 25 14 11 16 12 17 13 18 14 19 15 20 16 21 21 22 17 23 20 24
REMARK SMILES IDX 18 25 19 26
REMARK H PARENT 25 15 19 27
REMARK Flexibility Score: inf
ROOT
ATOM      1  C   UNL     1      17.179  11.298 -30.412  1.00  0.00     0.160 C 
ENDROOT
BRANCH   1   2
ATOM      2  C   UNL     1      16.050  12.092 -29.821  1.00  0.00     0.163 C 
ATOM      3  O   UNL     1      16.130  13.349 -29.782  1.00  0.00    -0.294 OA
BRANCH   2   4
ATOM      4  C   UNL     1      14.839  11.398 -29.342  1.00  0.00     0.048 C 
ATOM      5  C   UNL     1      14.888  10.311 -28.561  1.00  0.00     0.012 C 
BRANCH   5   6
ATOM      6  C   UNL     1      13.673   9.685 -27.989  1.00  0.00    -0.022 A 
ATOM      7  C   UNL     1      11.396   8.810 -28.212  1.00  0.00     0.161 A 
ATOM      8  C   UNL     1      11.372   8.553 -26.829  1.00  0.00     0.157 A 
ATOM      9  C   UNL     1      12.550   9.381 -28.784  1.00  0.00     0.058 A 
ATOM     10  C   UNL     1      12.478   8.873 -26.037  1.00  0.00     0.051 A 
ATOM     11  C   UNL     1      13.618   9.443 -26.610  1.00  0.00     0.012 A 
BRANCH   7  12
ATOM     12  O   UNL     1      10.263   8.498 -28.982  1.00  0.00    -0.493 OA
ATOM     13  C   UNL     1       9.842   9.224 -30.133  1.00  0.00     0.278 C 
ENDBRANCH   7  12
BRANCH   8  14
ATOM     14  O   UNL     1      10.252   7.984 -26.222  1.00  0.00    -0.504 OA
ATOM     15  H   UNL     1      10.260   7.044 -25.848  1.00  0.00     0.293 HD
ENDBRANCH   8  14
ENDBRANCH   5   6
ENDBRANCH   2   4
ENDBRANCH   1   2
BRANCH   1  16
ATOM     16  C   UNL     1      17.093  11.322 -31.910  1.00  0.00     0.163 C 
ATOM     17  O   UNL     1      16.268  10.566 -32.494  1.00  0.00    -0.294 OA
BRANCH  16  18
ATOM     18  C   UNL     1      18.020  12.169 -32.688  1.00  0.00     0.048 C 
ATOM     19  C   UNL     1      17.593  13.197 -33.434  1.00  0.00     0.012 C 
BRANCH  19  20
ATOM     20  C   UNL     1      18.486  13.992 -34.313  1.00  0.00    -0.025 A 
ATOM     21  C   UNL     1      19.879  14.063 -34.110  1.00  0.00     0.012 A 
ATOM     22  C   UNL     1      17.918  14.708 -35.379  1.00  0.00     0.012 A 
ATOM     23  C   UNL     1      20.682  14.815 -34.974  1.00  0.00     0.047 A 
ATOM     24  C   UNL     1      18.725  15.456 -36.242  1.00  0.00     0.047 A 
ATOM     25  C   UNL     1      20.107  15.509 -36.045  1.00  0.00     0.115 A 
BRANCH  25  26
ATOM     26  O   UNL     1      20.899  16.253 -36.917  1.00  0.00    -0.508 OA
ATOM     27  H   UNL     1      21.863  16.473 -36.698  1.00  0.00     0.293 HD
ENDBRANCH  25  26
ENDBRANCH  19  20
ENDBRANCH  16  18
ENDBRANCH   1  16
TORSDOF 9
ENDMDL
MODEL 13
REMARK VINA RESULT:    -7.954      2.908      5.835
REMARK INTER + INTRA:         -12.738
REMARK INTER:                 -12.264
REMARK INTRA:                  -0.473
REMARK UNBOUND:                -1.063
REMARK SMILES COc1cc(/C=C/C(=O)CC(=O)/C=C/c2ccc(O)cc2)ccc1O
REMARK SMILES IDX 10 1 8 2 9 3 7 4 6 5 5 6 3 7 24 8 4 9 23 10 22 11 2 12 1 13
REMARK SMILES IDX 25 14 11 16 12 17 13 18 14 19 15 20 16 21 21 22 17 23 20 24
REMARK SMILES IDX 18 25 19 26
REMARK H PARENT 25 15 19 27
REMARK Flexibility Score: inf
ROOT
ATOM      1  C   UNL     1      14.438  10.882 -30.472  1.00  0.00     0.160 C 
ENDROOT
BRANCH   1   2
ATOM      2  C   UNL     1      15.774  10.818 -31.153  1.00  0.00     0.163 C 
ATOM      3  O   UNL     1      16.508   9.806 -30.985  1.00  0.00    -0.294 OA
BRANCH   2   4
ATOM      4  C   UNL     1      16.192  11.911 -32.052  1.00  0.00     0.048 C 
ATOM      5  C   UNL     1      17.222  11.797 -32.899  1.00  0.00     0.012 C 
BRANCH   5   6
ATOM      6  C   UNL     1      17.569  12.852 -33.880  1.00  0.00    -0.022 A 
ATOM      7  C   UNL     1      17.841  13.641 -36.184  1.00  0.00     0.161 A 
ATOM      8  C   UNL     1      18.301  14.876 -35.694  1.00  0.00     0.157 A 
ATOM      9  C   UNL     1      17.480  12.631 -35.270  1.00  0.00     0.058 A 
ATOM     10  C   UNL     1      18.408  15.088 -34.316  1.00  0.00     0.051 A 
ATOM     11  C   UNL     1      18.053  14.082 -33.415  1.00  0.00     0.012 A 
BRANCH   7  12
ATOM     12  O   UNL     1      17.762  13.446 -37.573  1.00  0.00    -0.493 OA
ATOM     13  C   UNL     1      17.230  12.283 -38.198  1.00  0.00     0.278 C 
ENDBRANCH   7  12
BRANCH   8  14
ATOM     14  O   UNL     1      18.663  15.906 -36.563  1.00  0.00    -0.504 OA
ATOM     15  H   UNL     1      18.013  16.629 -36.843  1.00  0.00     0.293 HD
ENDBRANCH   8  14
ENDBRANCH   5   6
ENDBRANCH   2   4
ENDBRANCH   1   2
BRANCH   1  16
ATOM     16  C   UNL     1      14.601  11.388 -29.068  1.00  0.00     0.163 C 
ATOM     17  O   UNL     1      13.583  11.757 -28.422  1.00  0.00    -0.294 OA
BRANCH  16  18
ATOM     18  C   UNL     1      15.952  11.518 -28.485  1.00  0.00     0.048 C 
ATOM     19  C   UNL     1      16.250  11.056 -27.263  1.00  0.00     0.012 C 
BRANCH  19  20
ATOM     20  C   UNL     1      17.563  11.274 -26.608  1.00  0.00    -0.025 A 
ATOM     21  C   UNL     1      18.136  10.332 -25.729  1.00  0.00     0.012 A 
ATOM     22  C   UNL     1      18.255  12.469 -26.867  1.00  0.00     0.012 A 
ATOM     23  C   UNL     1      19.384  10.577 -25.147  1.00  0.00     0.047 A 
ATOM     24  C   UNL     1      19.504  12.707 -26.285  1.00  0.00     0.047 A 
ATOM     25  C   UNL     1      20.073  11.763 -25.428  1.00  0.00     0.115 A 
BRANCH  25  26
ATOM     26  O   UNL     1      21.321  12.011 -24.860  1.00  0.00    -0.508 OA
ATOM     27  H   UNL     1      21.515  11.787 -23.891  1.00  0.00     0.293 HD
ENDBRANCH  25  26
ENDBRANCH  19  20
ENDBRANCH  16  18
ENDBRANCH   1  16
TORSDOF 9
ENDMDL
MODEL 14
REMARK VINA RESULT:    -7.825      2.664      3.767
REMARK INTER + INTRA:         -12.548
REMARK INTER:                 -12.077
REMARK INTRA:                  -0.471
REMARK UNBOUND:                -1.063
REMARK SMILES COc1cc(/C=C/C(=O)CC(=O)/C=C/c2ccc(O)cc2)ccc1O
REMARK SMILES IDX 10 1 8 2 9 3 7 4 6 5 5 6 3 7 24 8 4 9 23 10 22 11 2 12 1 13
REMARK SMILES IDX 25 14 11 16 12 17 13 18 14 19 15 20 16 21 21 22 17 23 20 24
REMARK SMILES IDX 18 25 19 26
REMARK H PARENT 25 15 19 27
REMARK Flexibility Score: inf
ROOT
ATOM      1  C   UNL     1      18.091  13.240 -29.078  1.00  0.00     0.160 C 
ENDROOT
BRANCH   1   2
ATOM      2  C   UNL     1      18.263  12.423 -30.326  1.00  0.00     0.163 C 
ATOM      3  O   UNL     1      18.517  11.192 -30.231  1.00  0.00    -0.294 OA
BRANCH   2   4
ATOM      4  C   UNL     1      18.080  13.055 -31.647  1.00  0.00     0.048 C 
ATOM      5  C   UNL     1      19.102  13.535 -32.367  1.00  0.00     0.012 C 
BRANCH   5   6
ATOM      6  C   UNL     1      18.931  14.065 -33.740  1.00  0.00    -0.022 A 
ATOM      7  C   UNL     1      18.665  13.738 -36.153  1.00  0.00     0.161 A 
ATOM      8  C   UNL     1      18.672  15.133 -36.331  1.00  0.00     0.157 A 
ATOM      9  C   UNL     1      18.799  13.210 -34.854  1.00  0.00     0.058 A 
ATOM     10  C   UNL     1      18.822  15.979 -35.229  1.00  0.00     0.051 A 
ATOM     11  C   UNL     1      18.960  15.451 -33.944  1.00  0.00     0.012 A 
BRANCH   7  12
ATOM     12  O   UNL     1      18.532  12.909 -37.280  1.00  0.00    -0.493 OA
ATOM     13  C   UNL     1      17.712  11.746 -37.336  1.00  0.00     0.278 C 
ENDBRANCH   7  12
BRANCH   8  14
ATOM     14  O   UNL     1      18.536  15.698 -37.600  1.00  0.00    -0.504 OA
ATOM     15  H   UNL     1      19.307  16.149 -38.075  1.00  0.00     0.293 HD
ENDBRANCH   8  14
ENDBRANCH   5   6
ENDBRANCH   2   4
ENDBRANCH   1   2
BRANCH   1  16
ATOM     16  C   UNL     1      17.888  12.336 -27.897  1.00  0.00     0.163 C 
ATOM     17  O   UNL     1      18.868  12.070 -27.147  1.00  0.00    -0.294 OA
BRANCH  16  18
ATOM     18  C   UNL     1      16.572  11.708 -27.667  1.00  0.00     0.048 C 
ATOM     19  C   UNL     1      16.318  10.954 -26.589  1.00  0.00     0.012 C 
BRANCH  19  20
ATOM     20  C   UNL     1      15.044  10.221 -26.389  1.00  0.00    -0.025 A 
ATOM     21  C   UNL     1      14.739   9.546 -25.190  1.00  0.00     0.012 A 
ATOM     22  C   UNL     1      14.113  10.188 -27.441  1.00  0.00     0.012 A 
ATOM     23  C   UNL     1      13.518   8.879 -25.045  1.00  0.00     0.047 A 
ATOM     24  C   UNL     1      12.893   9.523 -27.290  1.00  0.00     0.047 A 
ATOM     25  C   UNL     1      12.590   8.871 -26.093  1.00  0.00     0.115 A 
BRANCH  25  26
ATOM     26  O   UNL     1      11.367   8.217 -25.955  1.00  0.00    -0.508 OA
ATOM     27  H   UNL     1      11.313   7.210 -25.861  1.00  0.00     0.293 HD
ENDBRANCH  25  26
ENDBRANCH  19  20
ENDBRANCH  16  18
ENDBRANCH   1  16
TORSDOF 9
ENDMDL
MODEL 15
REMARK VINA RESULT:    -7.801      3.181      6.417
REMARK INTER + INTRA:         -12.513
REMARK INTER:                 -11.610
REMARK INTRA:                  -0.902
REMARK UNBOUND:                -1.063
REMARK SMILES COc1cc(/C=C/C(=O)CC(=O)/C=C/c2ccc(O)cc2)ccc1O
REMARK SMILES IDX 10 1 8 2 9 3 7 4 6 5 5 6 3 7 24 8 4 9 23 10 22 11 2 12 1 13
REMARK SMILES IDX 25 14 11 16 12 17 13 18 14 19 15 20 16 21 21 22 17 23 20 24
REMARK SMILES IDX 18 25 19 26
REMARK H PARENT 25 15 19 27
REMARK Flexibility Score: inf
ROOT
ATOM      1  C   UNL     1      14.899  11.034 -30.552  1.00  0.00     0.160 C 
ENDROOT
BRANCH   1   2
ATOM      2  C   UNL     1      16.145  10.299 -30.952  1.00  0.00     0.163 C 
ATOM      3  O   UNL     1      16.250   9.068 -30.694  1.00  0.00    -0.294 OA
BRANCH   2   4
ATOM      4  C   UNL     1      17.211  11.008 -31.687  1.00  0.00     0.048 C 
ATOM      5  C   UNL     1      17.232  12.340 -31.824  1.00  0.00     0.012 C 
BRANCH   5   6
ATOM      6  C   UNL     1      18.360  13.057 -32.463  1.00  0.00    -0.022 A 
ATOM      7  C   UNL     1      20.481  14.276 -32.336  1.00  0.00     0.161 A 
ATOM      8  C   UNL     1      20.441  14.467 -33.729  1.00  0.00     0.157 A 
ATOM      9  C   UNL     1      19.433  13.573 -31.709  1.00  0.00     0.058 A 
ATOM     10  C   UNL     1      19.366  13.973 -34.474  1.00  0.00     0.051 A 
ATOM     11  C   UNL     1      18.329  13.281 -33.846  1.00  0.00     0.012 A 
BRANCH   7  12
ATOM     12  O   UNL     1      21.562  14.799 -31.608  1.00  0.00    -0.493 OA
ATOM     13  C   UNL     1      21.444  15.492 -30.369  1.00  0.00     0.278 C 
ENDBRANCH   7  12
BRANCH   8  14
ATOM     14  O   UNL     1      21.461  15.152 -34.391  1.00  0.00    -0.504 OA
ATOM     15  H   UNL     1      21.906  15.970 -33.995  1.00  0.00     0.293 HD
ENDBRANCH   8  14
ENDBRANCH   5   6
ENDBRANCH   2   4
ENDBRANCH   1   2
BRANCH   1  16
ATOM     16  C   UNL     1      14.713  10.955 -29.065  1.00  0.00     0.163 C 
ATOM     17  O   UNL     1      13.550  11.042 -28.582  1.00  0.00    -0.294 OA
BRANCH  16  18
ATOM     18  C   UNL     1      15.890  10.851 -28.179  1.00  0.00     0.048 C 
ATOM     19  C   UNL     1      16.455  11.926 -27.613  1.00  0.00     0.012 C 
BRANCH  19  20
ATOM     20  C   UNL     1      17.703  11.864 -26.813  1.00  0.00    -0.025 A 
ATOM     21  C   UNL     1      18.040  10.746 -26.023  1.00  0.00     0.012 A 
ATOM     22  C   UNL     1      18.574  12.966 -26.836  1.00  0.00     0.012 A 
ATOM     23  C   UNL     1      19.236  10.729 -25.296  1.00  0.00     0.047 A 
ATOM     24  C   UNL     1      19.769  12.942 -26.111  1.00  0.00     0.047 A 
ATOM     25  C   UNL     1      20.105  11.825 -25.344  1.00  0.00     0.115 A 
BRANCH  25  26
ATOM     26  O   UNL     1      21.303  11.813 -24.631  1.00  0.00    -0.508 OA
ATOM     27  H   UNL     1      21.668  10.961 -24.225  1.00  0.00     0.293 HD
ENDBRANCH  25  26
ENDBRANCH  19  20
ENDBRANCH  16  18
ENDBRANCH   1  16
TORSDOF 9
ENDMDL
MODEL 16
REMARK VINA RESULT:    -7.756      2.606      9.133
REMARK INTER + INTRA:         -12.447
REMARK INTER:                 -11.860
REMARK INTRA:                  -0.587
REMARK UNBOUND:                -1.063
REMARK SMILES COc1cc(/C=C/C(=O)CC(=O)/C=C/c2ccc(O)cc2)ccc1O
REMARK SMILES IDX 10 1 8 2 9 3 7 4 6 5 5 6 3 7 24 8 4 9 23 10 22 11 2 12 1 13
REMARK SMILES IDX 25 14 11 16 12 17 13 18 14 19 15 20 16 21 21 22 17 23 20 24
REMARK SMILES IDX 18 25 19 26
REMARK H PARENT 25 15 19 27
REMARK Flexibility Score: inf
ROOT
ATOM      1  C   UNL     1      15.889  10.668 -31.877  1.00  0.00     0.160 C 
ENDROOT
BRANCH   1   2
ATOM      2  C   UNL     1      15.568  11.471 -30.650  1.00  0.00     0.163 C 
ATOM      3  O   UNL     1      15.425  12.720 -30.746  1.00  0.00    -0.294 OA
BRANCH   2   4
ATOM      4  C   UNL     1      15.372  10.787 -29.357  1.00  0.00     0.048 C 
ATOM      5  C   UNL     1      14.308  11.010 -28.575  1.00  0.00     0.012 C 
BRANCH   5   6
ATOM      6  C   UNL     1      14.056  10.241 -27.334  1.00  0.00    -0.022 A 
ATOM      7  C   UNL     1      14.750   9.422 -25.132  1.00  0.00     0.161 A 
ATOM      8  C   UNL     1      13.542   8.709 -25.029  1.00  0.00     0.157 A 
ATOM      9  C   UNL     1      15.002  10.183 -26.291  1.00  0.00     0.058 A 
ATOM     10  C   UNL     1      12.612   8.751 -26.072  1.00  0.00     0.051 A 
ATOM     11  C   UNL     1      12.869   9.503 -27.220  1.00  0.00     0.012 A 
BRANCH   7  12
ATOM     12  O   UNL     1      15.676   9.347 -24.078  1.00  0.00    -0.493 OA
ATOM     13  C   UNL     1      17.038   9.753 -24.168  1.00  0.00     0.278 C 
ENDBRANCH   7  12
BRANCH   8  14
ATOM     14  O   UNL     1      13.249   7.948 -23.897  1.00  0.00    -0.504 OA
ATOM     15  H   UNL     1      13.017   8.371 -23.007  1.00  0.00     0.293 HD
ENDBRANCH   8  14
ENDBRANCH   5   6
ENDBRANCH   2   4
ENDBRANCH   1   2
BRANCH   1  16
ATOM     16  C   UNL     1      15.257  11.300 -33.083  1.00  0.00     0.163 C 
ATOM     17  O   UNL     1      14.057  11.030 -33.365  1.00  0.00    -0.294 OA
BRANCH  16  18
ATOM     18  C   UNL     1      16.061  12.168 -33.966  1.00  0.00     0.048 C 
ATOM     19  C   UNL     1      17.337  12.475 -33.696  1.00  0.00     0.012 C 
BRANCH  19  20
ATOM     20  C   UNL     1      18.132  13.434 -34.503  1.00  0.00    -0.025 A 
ATOM     21  C   UNL     1      17.535  14.461 -35.262  1.00  0.00     0.012 A 
ATOM     22  C   UNL     1      19.531  13.304 -34.519  1.00  0.00     0.012 A 
ATOM     23  C   UNL     1      18.328  15.350 -35.996  1.00  0.00     0.047 A 
ATOM     24  C   UNL     1      20.319  14.197 -35.252  1.00  0.00     0.047 A 
ATOM     25  C   UNL     1      19.722  15.222 -35.988  1.00  0.00     0.115 A 
BRANCH  25  26
ATOM     26  O   UNL     1      20.520  16.108 -36.709  1.00  0.00    -0.508 OA
ATOM     27  H   UNL     1      20.229  16.471 -37.608  1.00  0.00     0.293 HD
ENDBRANCH  25  26
ENDBRANCH  19  20
ENDBRANCH  16  18
ENDBRANCH   1  16
TORSDOF 9
ENDMDL
MODEL 17
REMARK VINA RESULT:    -7.617      2.938      4.313
REMARK INTER + INTRA:         -12.243
REMARK INTER:                 -11.875
REMARK INTRA:                  -0.368
REMARK UNBOUND:                -1.063
REMARK SMILES COc1cc(/C=C/C(=O)CC(=O)/C=C/c2ccc(O)cc2)ccc1O
REMARK SMILES IDX 10 1 8 2 9 3 7 4 6 5 5 6 3 7 24 8 4 9 23 10 22 11 2 12 1 13
REMARK SMILES IDX 25 14 11 16 12 17 13 18 14 19 15 20 16 21 21 22 17 23 20 24
REMARK SMILES IDX 18 25 19 26
REMARK H PARENT 25 15 19 27
REMARK Flexibility Score: inf
ROOT
ATOM      1  C   UNL     1      16.818  12.224 -29.883  1.00  0.00     0.160 C 
ENDROOT
BRANCH   1   2
ATOM      2  C   UNL     1      17.149  11.433 -31.116  1.00  0.00     0.163 C 
ATOM      3  O   UNL     1      16.975  10.184 -31.117  1.00  0.00    -0.294 OA
BRANCH   2   4
ATOM      4  C   UNL     1      17.622  12.129 -32.328  1.00  0.00     0.048 C 
ATOM      5  C   UNL     1      18.002  13.413 -32.323  1.00  0.00     0.012 C 
BRANCH   5   6
ATOM      6  C   UNL     1      18.584  14.077 -33.513  1.00  0.00    -0.022 A 
ATOM      7  C   UNL     1      20.481  14.594 -34.975  1.00  0.00     0.161 A 
ATOM      8  C   UNL     1      19.643  15.415 -35.752  1.00  0.00     0.157 A 
ATOM      9  C   UNL     1      19.944  13.931 -33.853  1.00  0.00     0.058 A 
ATOM     10  C   UNL     1      18.299  15.575 -35.403  1.00  0.00     0.051 A 
ATOM     11  C   UNL     1      17.774  14.919 -34.288  1.00  0.00     0.012 A 
BRANCH   7  12
ATOM     12  O   UNL     1      21.832  14.466 -35.335  1.00  0.00    -0.493 OA
ATOM     13  C   UNL     1      22.929  14.662 -34.448  1.00  0.00     0.278 C 
ENDBRANCH   7  12
BRANCH   8  14
ATOM     14  O   UNL     1      20.132  16.085 -36.874  1.00  0.00    -0.504 OA
ATOM     15  H   UNL     1      20.267  17.089 -36.886  1.00  0.00     0.293 HD
ENDBRANCH   8  14
ENDBRANCH   5   6
ENDBRANCH   2   4
ENDBRANCH   1   2
BRANCH   1  16
ATOM     16  C   UNL     1      16.629  11.299 -28.716  1.00  0.00     0.163 C 
ATOM     17  O   UNL     1      17.601  11.072 -27.944  1.00  0.00    -0.294 OA
BRANCH  16  18
ATOM     18  C   UNL     1      15.338  10.608 -28.526  1.00  0.00     0.048 C 
ATOM     19  C   UNL     1      14.772  10.473 -27.319  1.00  0.00     0.012 C 
BRANCH  19  20
ATOM     20  C   UNL     1      13.536   9.687 -27.083  1.00  0.00    -0.025 A 
ATOM     21  C   UNL     1      13.268   9.047 -25.856  1.00  0.00     0.012 A 
ATOM     22  C   UNL     1      12.604   9.566 -28.128  1.00  0.00     0.012 A 
ATOM     23  C   UNL     1      12.081   8.328 -25.677  1.00  0.00     0.047 A 
ATOM     24  C   UNL     1      11.417   8.849 -27.944  1.00  0.00     0.047 A 
ATOM     25  C   UNL     1      11.151   8.232 -26.719  1.00  0.00     0.115 A 
BRANCH  25  26
ATOM     26  O   UNL     1       9.962   7.526 -26.548  1.00  0.00    -0.508 OA
ATOM     27  H   UNL     1       9.109   7.990 -26.259  1.00  0.00     0.293 HD
ENDBRANCH  25  26
ENDBRANCH  19  20
ENDBRANCH  16  18
ENDBRANCH   1  16
TORSDOF 9
ENDMDL
MODEL 18
REMARK VINA RESULT:    -7.510      2.566      8.594
REMARK INTER + INTRA:         -12.085
REMARK INTER:                 -11.552
REMARK INTRA:                  -0.533
REMARK UNBOUND:                -1.063
REMARK SMILES COc1cc(/C=C/C(=O)CC(=O)/C=C/c2ccc(O)cc2)ccc1O
REMARK SMILES IDX 10 1 8 2 9 3 7 4 6 5 5 6 3 7 24 8 4 9 23 10 22 11 2 12 1 13
REMARK SMILES IDX 25 14 11 16 12 17 13 18 14 19 15 20 16 21 21 22 17 23 20 24
REMARK SMILES IDX 18 25 19 26
REMARK H PARENT 25 15 19 27
REMARK Flexibility Score: inf
ROOT
ATOM      1  C   UNL     1      17.633  13.026 -30.856  1.00  0.00     0.160 C 
ENDROOT
BRANCH   1   2
ATOM      2  C   UNL     1      17.768  12.840 -29.373  1.00  0.00     0.163 C 
ATOM      3  O   UNL     1      18.594  13.545 -28.732  1.00  0.00    -0.294 OA
BRANCH   2   4
ATOM      4  C   UNL     1      16.898  11.875 -28.673  1.00  0.00     0.048 C 
ATOM      5  C   UNL     1      15.661  12.181 -28.262  1.00  0.00     0.012 C 
BRANCH   5   6
ATOM      6  C   UNL     1      14.749  11.179 -27.663  1.00  0.00    -0.022 A 
ATOM      7  C   UNL     1      14.068   9.726 -25.813  1.00  0.00     0.161 A 
ATOM      8  C   UNL     1      13.018   9.228 -26.606  1.00  0.00     0.157 A 
ATOM      9  C   UNL     1      14.932  10.699 -26.351  1.00  0.00     0.058 A 
ATOM     10  C   UNL     1      12.848   9.689 -27.914  1.00  0.00     0.051 A 
ATOM     11  C   UNL     1      13.712  10.650 -28.443  1.00  0.00     0.012 A 
BRANCH   7  12
ATOM     12  O   UNL     1      14.228   9.231 -24.508  1.00  0.00    -0.493 OA
ATOM     13  C   UNL     1      15.485   9.008 -23.876  1.00  0.00     0.278 C 
ENDBRANCH   7  12
BRANCH   8  14
ATOM     14  O   UNL     1      12.135   8.267 -26.111  1.00  0.00    -0.504 OA
ATOM     15  H   UNL     1      12.432   7.537 -25.476  1.00  0.00     0.293 HD
ENDBRANCH   8  14
ENDBRANCH   5   6
ENDBRANCH   2   4
ENDBRANCH   1   2
BRANCH   1  16
ATOM     16  C   UNL     1      18.442  11.988 -31.579  1.00  0.00     0.163 C 
ATOM     17  O   UNL     1      19.243  11.265 -30.926  1.00  0.00    -0.294 OA
BRANCH  16  18
ATOM     18  C   UNL     1      18.349  11.873 -33.048  1.00  0.00     0.048 C 
ATOM     19  C   UNL     1      18.959  12.735 -33.872  1.00  0.00     0.012 C 
BRANCH  19  20
ATOM     20  C   UNL     1      18.790  12.711 -35.346  1.00  0.00    -0.025 A 
ATOM     21  C   UNL     1      19.794  13.155 -36.230  1.00  0.00     0.012 A 
ATOM     22  C   UNL     1      17.578  12.239 -35.878  1.00  0.00     0.012 A 
ATOM     23  C   UNL     1      19.592  13.100 -37.614  1.00  0.00     0.047 A 
ATOM     24  C   UNL     1      17.383  12.183 -37.261  1.00  0.00     0.047 A 
ATOM     25  C   UNL     1      18.388  12.609 -38.132  1.00  0.00     0.115 A 
BRANCH  25  26
ATOM     26  O   UNL     1      18.182  12.541 -39.508  1.00  0.00    -0.508 OA
ATOM     27  H   UNL     1      18.839  12.950 -40.162  1.00  0.00     0.293 HD
ENDBRANCH  25  26
ENDBRANCH  19  20
ENDBRANCH  16  18
ENDBRANCH   1  16
TORSDOF 9
ENDMDL
MODEL 19
REMARK VINA RESULT:    -7.344      2.525      3.640
REMARK INTER + INTRA:         -11.842
REMARK INTER:                 -11.379
REMARK INTRA:                  -0.463
REMARK UNBOUND:                -1.063
REMARK SMILES COc1cc(/C=C/C(=O)CC(=O)/C=C/c2ccc(O)cc2)ccc1O
REMARK SMILES IDX 10 1 8 2 9 3 7 4 6 5 5 6 3 7 24 8 4 9 23 10 22 11 2 12 1 13
REMARK SMILES IDX 25 14 11 16 12 17 13 18 14 19 15 20 16 21 21 22 17 23 20 24
REMARK SMILES IDX 18 25 19 26
REMARK H PARENT 25 15 19 27
REMARK Flexibility Score: inf
ROOT
ATOM      1  C   UNL     1      17.702  11.382 -31.029  1.00  0.00     0.160 C 
ENDROOT
BRANCH   1   2
ATOM      2  C   UNL     1      18.572  12.463 -31.601  1.00  0.00     0.163 C 
ATOM      3  O   UNL     1      19.607  12.822 -30.976  1.00  0.00    -0.294 OA
BRANCH   2   4
ATOM      4  C   UNL     1      18.237  13.058 -32.909  1.00  0.00     0.048 C 
ATOM      5  C   UNL     1      18.933  12.795 -34.023  1.00  0.00     0.012 C 
BRANCH   5   6
ATOM      6  C   UNL     1      18.528  13.302 -35.355  1.00  0.00    -0.022 A 
ATOM      7  C   UNL     1      17.832  12.933 -37.674  1.00  0.00     0.161 A 
ATOM      8  C   UNL     1      17.827  14.325 -37.881  1.00  0.00     0.157 A 
ATOM      9  C   UNL     1      18.188  12.429 -36.408  1.00  0.00     0.058 A 
ATOM     10  C   UNL     1      18.183  15.189 -36.842  1.00  0.00     0.051 A 
ATOM     11  C   UNL     1      18.539  14.683 -35.590  1.00  0.00     0.012 A 
BRANCH   7  12
ATOM     12  O   UNL     1      17.490  12.086 -38.741  1.00  0.00    -0.493 OA
ATOM     13  C   UNL     1      16.160  11.856 -39.197  1.00  0.00     0.278 C 
ENDBRANCH   7  12
BRANCH   8  14
ATOM     14  O   UNL     1      17.475  14.868 -39.118  1.00  0.00    -0.504 OA
ATOM     15  H   UNL     1      17.553  15.858 -39.314  1.00  0.00     0.293 HD
ENDBRANCH   8  14
ENDBRANCH   5   6
ENDBRANCH   2   4
ENDBRANCH   1   2
BRANCH   1  16
ATOM     16  C   UNL     1      16.542  11.991 -30.296  1.00  0.00     0.163 C 
ATOM     17  O   UNL     1      16.687  13.107 -29.728  1.00  0.00    -0.294 OA
BRANCH  16  18
ATOM     18  C   UNL     1      15.270  11.248 -30.184  1.00  0.00     0.048 C 
ATOM     19  C   UNL     1      14.501  11.311 -29.089  1.00  0.00     0.012 C 
BRANCH  19  20
ATOM     20  C   UNL     1      13.279  10.489 -28.904  1.00  0.00    -0.025 A 
ATOM     21  C   UNL     1      12.338  10.289 -29.934  1.00  0.00     0.012 A 
ATOM     22  C   UNL     1      13.048   9.898 -27.651  1.00  0.00     0.012 A 
ATOM     23  C   UNL     1      11.208   9.494 -29.715  1.00  0.00     0.047 A 
ATOM     24  C   UNL     1      11.919   9.101 -27.438  1.00  0.00     0.047 A 
ATOM     25  C   UNL     1      10.999   8.894 -28.468  1.00  0.00     0.115 A 
BRANCH  25  26
ATOM     26  O   UNL     1       9.882   8.093 -28.243  1.00  0.00    -0.508 OA
ATOM     27  H   UNL     1       9.649   7.758 -27.316  1.00  0.00     0.293 HD
ENDBRANCH  25  26
ENDBRANCH  19  20
ENDBRANCH  16  18
ENDBRANCH   1  16
TORSDOF 9
ENDMDL
MODEL 20
REMARK VINA RESULT:    -7.292      2.487      8.095
REMARK INTER + INTRA:         -11.766
REMARK INTER:                 -11.701
REMARK INTRA:                  -0.065
REMARK UNBOUND:                -1.063
REMARK SMILES COc1cc(/C=C/C(=O)CC(=O)/C=C/c2ccc(O)cc2)ccc1O
REMARK SMILES IDX 10 1 8 2 9 3 7 4 6 5 5 6 3 7 24 8 4 9 23 10 22 11 2 12 1 13
REMARK SMILES IDX 25 14 11 16 12 17 13 18 14 19 15 20 16 21 21 22 17 23 20 24
REMARK SMILES IDX 18 25 19 26
REMARK H PARENT 25 15 19 27
REMARK Flexibility Score: inf
ROOT
ATOM      1  C   UNL     1      18.648  12.224 -30.442  1.00  0.00     0.160 C 
ENDROOT
BRANCH   1   2
ATOM      2  C   UNL     1      17.943  12.532 -29.153  1.00  0.00     0.163 C 
ATOM      3  O   UNL     1      18.527  13.222 -28.275  1.00  0.00    -0.294 OA
BRANCH   2   4
ATOM      4  C   UNL     1      16.556  12.070 -28.949  1.00  0.00     0.048 C 
ATOM      5  C   UNL     1      16.255  10.975 -28.239  1.00  0.00     0.012 C 
BRANCH   5   6
ATOM      6  C   UNL     1      14.859  10.578 -27.939  1.00  0.00    -0.022 A 
ATOM      7  C   UNL     1      12.467  10.566 -28.466  1.00  0.00     0.161 A 
ATOM      8  C   UNL     1      12.222   9.848 -27.281  1.00  0.00     0.157 A 
ATOM      9  C   UNL     1      13.789  10.932 -28.786  1.00  0.00     0.058 A 
ATOM     10  C   UNL     1      13.281   9.514 -26.432  1.00  0.00     0.051 A 
ATOM     11  C   UNL     1      14.589   9.884 -26.752  1.00  0.00     0.012 A 
BRANCH   7  12
ATOM     12  O   UNL     1      11.382  10.905 -29.292  1.00  0.00    -0.493 OA
ATOM     13  C   UNL     1      10.959  10.150 -30.423  1.00  0.00     0.278 C 
ENDBRANCH   7  12
BRANCH   8  14
ATOM     14  O   UNL     1      10.928   9.460 -26.928  1.00  0.00    -0.504 OA
ATOM     15  H   UNL     1      10.548   9.629 -26.005  1.00  0.00     0.293 HD
ENDBRANCH   8  14
ENDBRANCH   5   6
ENDBRANCH   2   4
ENDBRANCH   1   2
BRANCH   1  16
ATOM     16  C   UNL     1      19.127  13.495 -31.080  1.00  0.00     0.163 C 
ATOM     17  O   UNL     1      19.564  14.427 -30.350  1.00  0.00    -0.294 OA
BRANCH  16  18
ATOM     18  C   UNL     1      19.013  13.674 -32.542  1.00  0.00     0.048 C 
ATOM     19  C   UNL     1      18.867  12.638 -33.379  1.00  0.00     0.012 C 
BRANCH  19  20
ATOM     20  C   UNL     1      18.865  12.779 -34.856  1.00  0.00    -0.025 A 
ATOM     21  C   UNL     1      19.989  13.234 -35.574  1.00  0.00     0.012 A 
ATOM     22  C   UNL     1      17.694  12.457 -35.562  1.00  0.00     0.012 A 
ATOM     23  C   UNL     1      19.943  13.337 -36.969  1.00  0.00     0.047 A 
ATOM     24  C   UNL     1      17.654  12.558 -36.956  1.00  0.00     0.047 A 
ATOM     25  C   UNL     1      18.777  12.994 -37.663  1.00  0.00     0.115 A 
BRANCH  25  26
ATOM     26  O   UNL     1      18.724  13.084 -39.052  1.00  0.00    -0.508 OA
ATOM     27  H   UNL     1      18.614  12.261 -39.632  1.00  0.00     0.293 HD
ENDBRANCH  25  26
ENDBRANCH  19  20
ENDBRANCH  16  18
ENDBRANCH   1  16
TORSDOF 9
ENDMDL
