REMARK SMILES O=C(/C=C/c1ccc(O)cc1)CC(=O)/C=C/c1ccc(O)cc1
REMARK SMILES IDX 12 1 2 2 1 3 3 4 4 5 5 6 6 7 7 8 8 9 11 10 10 11 9 12 13 14
REMARK SMILES IDX 14 15 15 16 16 17 17 18 18 19 23 20 19 21 22 22 20 23 21 24
REMARK H PARENT 9 13 21 25
REMARK Flexibility Score: inf
ROOT
ATOM      1  C   UNL     1      -1.667  -2.051   3.079  1.00  0.00     0.160 C 
ENDROOT
BRANCH   1   2
ATOM      2  C   UNL     1      -2.242  -0.669   3.152  1.00  0.00     0.163 C 
ATOM      3  O   UNL     1      -2.434  -0.140   4.280  1.00  0.00    -0.294 OA
BRANCH   2   4
ATOM      4  C   UNL     1      -2.536   0.076   1.911  1.00  0.00     0.048 C 
ATOM      5  C   UNL     1      -2.978   1.342   1.924  1.00  0.00     0.012 C 
BRANCH   5   6
ATOM      6  C   UNL     1      -3.258   2.128   0.698  1.00  0.00    -0.025 A 
ATOM      7  C   UNL     1      -3.279   3.531   0.788  1.00  0.00     0.012 A 
ATOM      8  C   UNL     1      -3.546   4.313  -0.339  1.00  0.00     0.047 A 
ATOM      9  C   UNL     1      -3.807   3.706  -1.571  1.00  0.00     0.115 A 
ATOM     10  C   UNL     1      -3.537   1.523  -0.545  1.00  0.00     0.012 A 
ATOM     11  C   UNL     1      -3.804   2.309  -1.670  1.00  0.00     0.047 A 
BRANCH   9  12
ATOM     12  O   UNL     1      -4.071   4.497  -2.686  1.00  0.00    -0.508 OA
ATOM     13  H   UNL     1      -4.266   4.087  -3.592  1.00  0.00     0.293 HD
ENDBRANCH   9  12
ENDBRANCH   5   6
ENDBRANCH   2   4
ENDBRANCH   1   2
BRANCH   1  14
ATOM     14  C   UNL     1      -0.176  -1.980   2.941  1.00  0.00     0.163 C 
ATOM     15  O   UNL     1       0.542  -2.021   3.978  1.00  0.00    -0.294 OA
BRANCH  14  16
ATOM     16  C   UNL     1       0.437  -1.813   1.607  1.00  0.00     0.048 C 
ATOM     17  C   UNL     1       1.762  -1.706   1.437  1.00  0.00     0.012 C 
BRANCH  17  18
ATOM     18  C   UNL     1       2.407  -1.530   0.113  1.00  0.00    -0.025 A 
ATOM     19  C   UNL     1       3.760  -1.881  -0.030  1.00  0.00     0.012 A 
ATOM     20  C   UNL     1       1.724  -0.988  -0.996  1.00  0.00     0.012 A 
ATOM     21  C   UNL     1       4.411  -1.721  -1.257  1.00  0.00     0.047 A 
ATOM     22  C   UNL     1       2.379  -0.829  -2.221  1.00  0.00     0.047 A 
ATOM     23  C   UNL     1       3.723  -1.198  -2.355  1.00  0.00     0.115 A 
BRANCH  23  24
ATOM     24  O   UNL     1       4.384  -1.044  -3.572  1.00  0.00    -0.508 OA
ATOM     25  H   UNL     1       3.913  -0.669  -4.386  1.00  0.00     0.293 HD
ENDBRANCH  23  24
ENDBRANCH  17  18
ENDBRANCH  14  16
ENDBRANCH   1  14
TORSDOF 8
