MODEL 1
REMARK VINA RESULT:    -8.787      0.000      0.000
REMARK INTER + INTRA:         -14.986
REMARK INTER:                 -13.410
REMARK INTRA:                  -1.575
REMARK UNBOUND:                -1.575
REMARK SMILES COc1cc(/C=C/C(=O)CC(=O)/C=C/c2ccc(O)c(OC)c2)ccc1O
REMARK SMILES IDX 10 1 8 2 9 3 7 4 6 5 5 6 3 7 26 8 4 9 25 10 24 11 2 12 1 13
REMARK SMILES IDX 27 14 11 16 12 17 13 18 14 19 15 20 23 21 16 22 20 23 17 24
REMARK SMILES IDX 18 25 21 26 22 27 19 28
REMARK H PARENT 27 15 19 29
REMARK Flexibility Score: inf
ROOT
ATOM      1  C   UNL     1      11.275  10.170 -27.586  1.00  0.00     0.160 C 
ENDROOT
BRANCH   1   2
ATOM      2  C   UNL     1      11.626   9.757 -28.986  1.00  0.00     0.163 C 
ATOM      3  O   UNL     1      11.089   8.731 -29.482  1.00  0.00    -0.294 OA
BRANCH   2   4
ATOM      4  C   UNL     1      12.645  10.515 -29.744  1.00  0.00     0.048 C 
ATOM      5  C   UNL     1      13.951  10.227 -29.673  1.00  0.00     0.012 C 
BRANCH   5   6
ATOM      6  C   UNL     1      15.004  11.041 -30.330  1.00  0.00    -0.022 A 
ATOM      7  C   UNL     1      16.530  11.521 -32.184  1.00  0.00     0.161 A 
ATOM      8  C   UNL     1      16.980  12.664 -31.509  1.00  0.00     0.157 A 
ATOM      9  C   UNL     1      15.546  10.708 -31.588  1.00  0.00     0.058 A 
ATOM     10  C   UNL     1      16.460  12.985 -30.251  1.00  0.00     0.051 A 
ATOM     11  C   UNL     1      15.484  12.179 -29.665  1.00  0.00     0.012 A 
BRANCH   7  12
ATOM     12  O   UNL     1      17.079  11.232 -33.444  1.00  0.00    -0.493 OA
ATOM     13  C   UNL     1      16.315  10.996 -34.622  1.00  0.00     0.278 C 
ENDBRANCH   7  12
BRANCH   8  14
ATOM     14  O   UNL     1      17.949  13.476 -32.098  1.00  0.00    -0.504 OA
ATOM     15  H   UNL     1      18.207  14.370 -31.697  1.00  0.00     0.293 HD
ENDBRANCH   8  14
ENDBRANCH   5   6
ENDBRANCH   2   4
ENDBRANCH   1   2
BRANCH   1  16
ATOM     16  C   UNL     1      11.785   9.151 -26.609  1.00  0.00     0.163 C 
ATOM     17  O   UNL     1      10.989   8.299 -26.128  1.00  0.00    -0.294 OA
BRANCH  16  18
ATOM     18  C   UNL     1      13.220   9.117 -26.268  1.00  0.00     0.048 C 
ATOM     19  C   UNL     1      13.984  10.216 -26.241  1.00  0.00     0.012 C 
BRANCH  19  20
ATOM     20  C   UNL     1      15.395  10.197 -25.790  1.00  0.00    -0.022 A 
ATOM     21  C   UNL     1      16.406  10.889 -26.486  1.00  0.00     0.058 A 
ATOM     22  C   UNL     1      15.743   9.422 -24.676  1.00  0.00     0.012 A 
ATOM     23  C   UNL     1      17.745  10.833 -26.053  1.00  0.00     0.161 A 
ATOM     24  C   UNL     1      17.068   9.367 -24.238  1.00  0.00     0.051 A 
ATOM     25  C   UNL     1      18.068  10.070 -24.917  1.00  0.00     0.157 A 
BRANCH  23  26
ATOM     26  O   UNL     1      18.772  11.513 -26.729  1.00  0.00    -0.493 OA
ATOM     27  C   UNL     1      19.238  12.817 -26.390  1.00  0.00     0.278 C 
ENDBRANCH  23  26
BRANCH  25  28
ATOM     28  O   UNL     1      19.380   9.992 -24.451  1.00  0.00    -0.504 OA
ATOM     29  H   UNL     1      19.860   9.107 -24.334  1.00  0.00     0.293 HD
ENDBRANCH  25  28
ENDBRANCH  19  20
ENDBRANCH  16  18
ENDBRANCH   1  16
TORSDOF 10
ENDMDL
MODEL 2
REMARK VINA RESULT:    -8.661      1.812      7.924
REMARK INTER + INTRA:         -14.794
REMARK INTER:                 -13.716
REMARK INTRA:                  -1.077
REMARK UNBOUND:                -1.575
REMARK SMILES COc1cc(/C=C/C(=O)CC(=O)/C=C/c2ccc(O)c(OC)c2)ccc1O
REMARK SMILES IDX 10 1 8 2 9 3 7 4 6 5 5 6 3 7 26 8 4 9 25 10 24 11 2 12 1 13
REMARK SMILES IDX 27 14 11 16 12 17 13 18 14 19 15 20 23 21 16 22 20 23 17 24
REMARK SMILES IDX 18 25 21 26 22 27 19 28
REMARK H PARENT 27 15 19 29
REMARK Flexibility Score: inf
ROOT
ATOM      1  C   UNL     1      18.157  11.211 -27.380  1.00  0.00     0.160 C 
ENDROOT
BRANCH   1   2
ATOM      2  C   UNL     1      16.967  10.978 -26.495  1.00  0.00     0.163 C 
ATOM      3  O   UNL     1      17.105  11.037 -25.244  1.00  0.00    -0.294 OA
BRANCH   2   4
ATOM      4  C   UNL     1      15.664  10.616 -27.092  1.00  0.00     0.048 C 
ATOM      5  C   UNL     1      14.713   9.973 -26.401  1.00  0.00     0.012 C 
BRANCH   5   6
ATOM      6  C   UNL     1      13.445   9.496 -27.006  1.00  0.00    -0.022 A 
ATOM      7  C   UNL     1      11.251   8.414 -26.870  1.00  0.00     0.161 A 
ATOM      8  C   UNL     1      11.057   8.652 -28.237  1.00  0.00     0.157 A 
ATOM      9  C   UNL     1      12.451   8.831 -26.259  1.00  0.00     0.058 A 
ATOM     10  C   UNL     1      12.051   9.292 -28.986  1.00  0.00     0.051 A 
ATOM     11  C   UNL     1      13.235   9.706 -28.377  1.00  0.00     0.012 A 
BRANCH   7  12
ATOM     12  O   UNL     1      10.231   7.767 -26.154  1.00  0.00    -0.493 OA
ATOM     13  C   UNL     1      10.254   6.394 -25.779  1.00  0.00     0.278 C 
ENDBRANCH   7  12
BRANCH   8  14
ATOM     14  O   UNL     1       9.870   8.246 -28.845  1.00  0.00    -0.504 OA
ATOM     15  H   UNL     1       9.708   7.279 -29.102  1.00  0.00     0.293 HD
ENDBRANCH   8  14
ENDBRANCH   5   6
ENDBRANCH   2   4
ENDBRANCH   1   2
BRANCH   1  16
ATOM     16  C   UNL     1      17.998  12.508 -28.120  1.00  0.00     0.163 C 
ATOM     17  O   UNL     1      18.019  13.595 -27.480  1.00  0.00    -0.294 OA
BRANCH  16  18
ATOM     18  C   UNL     1      17.881  12.502 -29.591  1.00  0.00     0.048 C 
ATOM     19  C   UNL     1      17.206  11.559 -30.260  1.00  0.00     0.012 C 
BRANCH  19  20
ATOM     20  C   UNL     1      16.994  11.616 -31.725  1.00  0.00    -0.022 A 
ATOM     21  C   UNL     1      15.968  10.884 -32.355  1.00  0.00     0.058 A 
ATOM     22  C   UNL     1      17.874  12.371 -32.511  1.00  0.00     0.012 A 
ATOM     23  C   UNL     1      15.803  10.933 -33.753  1.00  0.00     0.161 A 
ATOM     24  C   UNL     1      17.714  12.428 -33.897  1.00  0.00     0.051 A 
ATOM     25  C   UNL     1      16.683  11.718 -34.520  1.00  0.00     0.157 A 
BRANCH  23  26
ATOM     26  O   UNL     1      14.789  10.214 -34.407  1.00  0.00    -0.493 OA
ATOM     27  C   UNL     1      13.443  10.659 -34.545  1.00  0.00     0.278 C 
ENDBRANCH  23  26
BRANCH  25  28
ATOM     28  O   UNL     1      16.553  11.800 -35.906  1.00  0.00    -0.504 OA
ATOM     29  H   UNL     1      16.231  12.641 -36.370  1.00  0.00     0.293 HD
ENDBRANCH  25  28
ENDBRANCH  19  20
ENDBRANCH  16  18
ENDBRANCH   1  16
TORSDOF 10
ENDMDL
MODEL 3
REMARK VINA RESULT:    -8.654      1.911      5.749
REMARK INTER + INTRA:         -14.782
REMARK INTER:                 -13.869
REMARK INTRA:                  -0.913
REMARK UNBOUND:                -1.575
REMARK SMILES COc1cc(/C=C/C(=O)CC(=O)/C=C/c2ccc(O)c(OC)c2)ccc1O
REMARK SMILES IDX 10 1 8 2 9 3 7 4 6 5 5 6 3 7 26 8 4 9 25 10 24 11 2 12 1 13
REMARK SMILES IDX 27 14 11 16 12 17 13 18 14 19 15 20 23 21 16 22 20 23 17 24
REMARK SMILES IDX 18 25 21 26 22 27 19 28
REMARK H PARENT 27 15 19 29
REMARK Flexibility Score: inf
ROOT
ATOM      1  C   UNL     1      16.776  12.709 -27.600  1.00  0.00     0.160 C 
ENDROOT
BRANCH   1   2
ATOM      2  C   UNL     1      17.956  12.932 -28.500  1.00  0.00     0.163 C 
ATOM      3  O   UNL     1      19.075  13.218 -27.995  1.00  0.00    -0.294 OA
BRANCH   2   4
ATOM      4  C   UNL     1      17.783  12.882 -29.967  1.00  0.00     0.048 C 
ATOM      5  C   UNL     1      16.866  12.101 -30.554  1.00  0.00     0.012 C 
BRANCH   5   6
ATOM      6  C   UNL     1      16.747  11.943 -32.025  1.00  0.00    -0.022 A 
ATOM      7  C   UNL     1      15.642  11.069 -34.028  1.00  0.00     0.161 A 
ATOM      8  C   UNL     1      16.587  11.726 -34.828  1.00  0.00     0.157 A 
ATOM      9  C   UNL     1      15.730  11.174 -32.626  1.00  0.00     0.058 A 
ATOM     10  C   UNL     1      17.611  12.473 -34.234  1.00  0.00     0.051 A 
ATOM     11  C   UNL     1      17.692  12.576 -32.845  1.00  0.00     0.012 A 
BRANCH   7  12
ATOM     12  O   UNL     1      14.632  10.328 -34.663  1.00  0.00    -0.493 OA
ATOM     13  C   UNL     1      13.272  10.738 -34.760  1.00  0.00     0.278 C 
ENDBRANCH   7  12
BRANCH   8  14
ATOM     14  O   UNL     1      16.501  11.631 -36.216  1.00  0.00    -0.504 OA
ATOM     15  H   UNL     1      15.807  11.045 -36.666  1.00  0.00     0.293 HD
ENDBRANCH   8  14
ENDBRANCH   5   6
ENDBRANCH   2   4
ENDBRANCH   1   2
BRANCH   1  16
ATOM     16  C   UNL     1      16.785  11.300 -27.083  1.00  0.00     0.163 C 
ATOM     17  O   UNL     1      17.885  10.735 -26.838  1.00  0.00    -0.294 OA
BRANCH  16  18
ATOM     18  C   UNL     1      15.508  10.612 -26.809  1.00  0.00     0.048 C 
ATOM     19  C   UNL     1      14.553  10.462 -27.735  1.00  0.00     0.012 C 
BRANCH  19  20
ATOM     20  C   UNL     1      13.322   9.675 -27.493  1.00  0.00    -0.022 A 
ATOM     21  C   UNL     1      12.320   9.544 -28.475  1.00  0.00     0.058 A 
ATOM     22  C   UNL     1      13.122   9.096 -26.233  1.00  0.00     0.012 A 
ATOM     23  C   UNL     1      11.145   8.812 -28.211  1.00  0.00     0.161 A 
ATOM     24  C   UNL     1      11.962   8.366 -25.967  1.00  0.00     0.051 A 
ATOM     25  C   UNL     1      10.977   8.218 -26.948  1.00  0.00     0.157 A 
BRANCH  23  26
ATOM     26  O   UNL     1      10.131   8.666 -29.172  1.00  0.00    -0.493 OA
ATOM     27  C   UNL     1       9.922   9.550 -30.269  1.00  0.00     0.278 C 
ENDBRANCH  23  26
BRANCH  25  28
ATOM     28  O   UNL     1       9.832   7.481 -26.646  1.00  0.00    -0.504 OA
ATOM     29  H   UNL     1       9.519   6.708 -27.222  1.00  0.00     0.293 HD
ENDBRANCH  25  28
ENDBRANCH  19  20
ENDBRANCH  16  18
ENDBRANCH   1  16
TORSDOF 10
ENDMDL
MODEL 4
REMARK VINA RESULT:    -8.625      1.757      7.703
REMARK INTER + INTRA:         -14.738
REMARK INTER:                 -13.355
REMARK INTRA:                  -1.384
REMARK UNBOUND:                -1.575
REMARK SMILES COc1cc(/C=C/C(=O)CC(=O)/C=C/c2ccc(O)c(OC)c2)ccc1O
REMARK SMILES IDX 10 1 8 2 9 3 7 4 6 5 5 6 3 7 26 8 4 9 25 10 24 11 2 12 1 13
REMARK SMILES IDX 27 14 11 16 12 17 13 18 14 19 15 20 23 21 16 22 20 23 17 24
REMARK SMILES IDX 18 25 21 26 22 27 19 28
REMARK H PARENT 27 15 19 29
REMARK Flexibility Score: inf
ROOT
ATOM      1  C   UNL     1      17.001  12.889 -27.616  1.00  0.00     0.160 C 
ENDROOT
BRANCH   1   2
ATOM      2  C   UNL     1      17.137  11.463 -27.166  1.00  0.00     0.163 C 
ATOM      3  O   UNL     1      18.285  10.985 -26.960  1.00  0.00    -0.294 OA
BRANCH   2   4
ATOM      4  C   UNL     1      15.933  10.615 -27.034  1.00  0.00     0.048 C 
ATOM      5  C   UNL     1      14.935  10.643 -27.928  1.00  0.00     0.012 C 
BRANCH   5   6
ATOM      6  C   UNL     1      13.667   9.890 -27.761  1.00  0.00    -0.022 A 
ATOM      7  C   UNL     1      11.591   8.923 -28.629  1.00  0.00     0.161 A 
ATOM      8  C   UNL     1      11.298   8.424 -27.352  1.00  0.00     0.157 A 
ATOM      9  C   UNL     1      12.774   9.662 -28.828  1.00  0.00     0.058 A 
ATOM     10  C   UNL     1      12.171   8.668 -26.286  1.00  0.00     0.051 A 
ATOM     11  C   UNL     1      13.343   9.398 -26.488  1.00  0.00     0.012 A 
BRANCH   7  12
ATOM     12  O   UNL     1      10.688   8.659 -29.671  1.00  0.00    -0.493 OA
ATOM     13  C   UNL     1       9.966   9.656 -30.385  1.00  0.00     0.278 C 
ENDBRANCH   7  12
BRANCH   8  14
ATOM     14  O   UNL     1      10.132   7.687 -27.151  1.00  0.00    -0.504 OA
ATOM     15  H   UNL     1       9.897   6.895 -27.738  1.00  0.00     0.293 HD
ENDBRANCH   8  14
ENDBRANCH   5   6
ENDBRANCH   2   4
ENDBRANCH   1   2
BRANCH   1  16
ATOM     16  C   UNL     1      17.736  13.089 -28.910  1.00  0.00     0.163 C 
ATOM     17  O   UNL     1      18.960  13.392 -28.888  1.00  0.00    -0.294 OA
BRANCH  16  18
ATOM     18  C   UNL     1      17.037  12.870 -30.191  1.00  0.00     0.048 C 
ATOM     19  C   UNL     1      17.186  11.755 -30.916  1.00  0.00     0.012 C 
BRANCH  19  20
ATOM     20  C   UNL     1      16.399  11.489 -32.142  1.00  0.00    -0.022 A 
ATOM     21  C   UNL     1      16.949  11.658 -33.428  1.00  0.00     0.058 A 
ATOM     22  C   UNL     1      15.054  11.116 -32.020  1.00  0.00     0.012 A 
ATOM     23  C   UNL     1      16.172  11.425 -34.580  1.00  0.00     0.161 A 
ATOM     24  C   UNL     1      14.279  10.878 -33.158  1.00  0.00     0.051 A 
ATOM     25  C   UNL     1      14.831  11.026 -34.434  1.00  0.00     0.157 A 
BRANCH  23  26
ATOM     26  O   UNL     1      16.695  11.586 -35.874  1.00  0.00    -0.493 OA
ATOM     27  C   UNL     1      18.052  11.909 -36.163  1.00  0.00     0.278 C 
ENDBRANCH  23  26
BRANCH  25  28
ATOM     28  O   UNL     1      14.027  10.779 -35.547  1.00  0.00    -0.504 OA
ATOM     29  H   UNL     1      13.947   9.858 -35.961  1.00  0.00     0.293 HD
ENDBRANCH  25  28
ENDBRANCH  19  20
ENDBRANCH  16  18
ENDBRANCH   1  16
TORSDOF 10
ENDMDL
MODEL 5
REMARK VINA RESULT:    -8.584      3.286      6.092
REMARK INTER + INTRA:         -14.676
REMARK INTER:                 -13.952
REMARK INTRA:                  -0.724
REMARK UNBOUND:                -1.575
REMARK SMILES COc1cc(/C=C/C(=O)CC(=O)/C=C/c2ccc(O)c(OC)c2)ccc1O
REMARK SMILES IDX 10 1 8 2 9 3 7 4 6 5 5 6 3 7 26 8 4 9 25 10 24 11 2 12 1 13
REMARK SMILES IDX 27 14 11 16 12 17 13 18 14 19 15 20 23 21 16 22 20 23 17 24
REMARK SMILES IDX 18 25 21 26 22 27 19 28
REMARK H PARENT 27 15 19 29
REMARK Flexibility Score: inf
ROOT
ATOM      1  C   UNL     1      17.075  12.834 -29.919  1.00  0.00     0.160 C 
ENDROOT
BRANCH   1   2
ATOM      2  C   UNL     1      17.548  11.773 -30.871  1.00  0.00     0.163 C 
ATOM      3  O   UNL     1      17.211  10.574 -30.678  1.00  0.00    -0.294 OA
BRANCH   2   4
ATOM      4  C   UNL     1      18.457  12.131 -31.980  1.00  0.00     0.048 C 
ATOM      5  C   UNL     1      18.169  13.103 -32.857  1.00  0.00     0.012 C 
BRANCH   5   6
ATOM      6  C   UNL     1      19.005  13.406 -34.045  1.00  0.00    -0.022 A 
ATOM      7  C   UNL     1      21.003  14.343 -35.106  1.00  0.00     0.161 A 
ATOM      8  C   UNL     1      20.536  13.909 -36.354  1.00  0.00     0.157 A 
ATOM      9  C   UNL     1      20.231  14.096 -33.954  1.00  0.00     0.058 A 
ATOM     10  C   UNL     1      19.310  13.242 -36.450  1.00  0.00     0.051 A 
ATOM     11  C   UNL     1      18.549  12.997 -35.307  1.00  0.00     0.012 A 
BRANCH   7  12
ATOM     12  O   UNL     1      22.238  15.010 -35.052  1.00  0.00    -0.493 OA
ATOM     13  C   UNL     1      23.463  14.408 -34.649  1.00  0.00     0.278 C 
ENDBRANCH   7  12
BRANCH   8  14
ATOM     14  O   UNL     1      21.300  14.146 -37.496  1.00  0.00    -0.504 OA
ATOM     15  H   UNL     1      22.287  13.921 -37.531  1.00  0.00     0.293 HD
ENDBRANCH   8  14
ENDBRANCH   5   6
ENDBRANCH   2   4
ENDBRANCH   1   2
BRANCH   1  16
ATOM     16  C   UNL     1      17.699  12.626 -28.570  1.00  0.00     0.163 C 
ATOM     17  O   UNL     1      18.773  13.222 -28.283  1.00  0.00    -0.294 OA
BRANCH  16  18
ATOM     18  C   UNL     1      17.020  11.776 -27.572  1.00  0.00     0.048 C 
ATOM     19  C   UNL     1      15.698  11.570 -27.576  1.00  0.00     0.012 C 
BRANCH  19  20
ATOM     20  C   UNL     1      15.033  10.629 -26.645  1.00  0.00    -0.022 A 
ATOM     21  C   UNL     1      13.891   9.896 -27.022  1.00  0.00     0.058 A 
ATOM     22  C   UNL     1      15.519  10.510 -25.337  1.00  0.00     0.012 A 
ATOM     23  C   UNL     1      13.260   9.027 -26.109  1.00  0.00     0.161 A 
ATOM     24  C   UNL     1      14.901   9.647 -24.429  1.00  0.00     0.051 A 
ATOM     25  C   UNL     1      13.780   8.904 -24.808  1.00  0.00     0.157 A 
BRANCH  23  26
ATOM     26  O   UNL     1      12.120   8.284 -26.458  1.00  0.00    -0.493 OA
ATOM     27  C   UNL     1      11.120   8.720 -27.375  1.00  0.00     0.278 C 
ENDBRANCH  23  26
BRANCH  25  28
ATOM     28  O   UNL     1      13.190   8.051 -23.875  1.00  0.00    -0.504 OA
ATOM     29  H   UNL     1      13.054   8.321 -22.908  1.00  0.00     0.293 HD
ENDBRANCH  25  28
ENDBRANCH  19  20
ENDBRANCH  16  18
ENDBRANCH   1  16
TORSDOF 10
ENDMDL
MODEL 6
REMARK VINA RESULT:    -8.476      3.252      9.089
REMARK INTER + INTRA:         -14.512
REMARK INTER:                 -13.766
REMARK INTRA:                  -0.746
REMARK UNBOUND:                -1.575
REMARK SMILES COc1cc(/C=C/C(=O)CC(=O)/C=C/c2ccc(O)c(OC)c2)ccc1O
REMARK SMILES IDX 10 1 8 2 9 3 7 4 6 5 5 6 3 7 26 8 4 9 25 10 24 11 2 12 1 13
REMARK SMILES IDX 27 14 11 16 12 17 13 18 14 19 15 20 23 21 16 22 20 23 17 24
REMARK SMILES IDX 18 25 21 26 22 27 19 28
REMARK H PARENT 27 15 19 29
REMARK Flexibility Score: inf
ROOT
ATOM      1  C   UNL     1      16.995  13.324 -29.936  1.00  0.00     0.160 C 
ENDROOT
BRANCH   1   2
ATOM      2  C   UNL     1      17.706  12.845 -28.704  1.00  0.00     0.163 C 
ATOM      3  O   UNL     1      18.872  13.258 -28.463  1.00  0.00    -0.294 OA
BRANCH   2   4
ATOM      4  C   UNL     1      17.064  11.846 -27.825  1.00  0.00     0.048 C 
ATOM      5  C   UNL     1      15.739  11.642 -27.819  1.00  0.00     0.012 C 
BRANCH   5   6
ATOM      6  C   UNL     1      15.057  10.730 -26.868  1.00  0.00    -0.022 A 
ATOM      7  C   UNL     1      13.289   9.140 -26.280  1.00  0.00     0.161 A 
ATOM      8  C   UNL     1      13.848   9.001 -25.003  1.00  0.00     0.157 A 
ATOM      9  C   UNL     1      13.893  10.012 -27.208  1.00  0.00     0.058 A 
ATOM     10  C   UNL     1      14.991   9.730 -24.654  1.00  0.00     0.051 A 
ATOM     11  C   UNL     1      15.587  10.590 -25.577  1.00  0.00     0.012 A 
BRANCH   7  12
ATOM     12  O   UNL     1      12.141   8.393 -26.590  1.00  0.00    -0.493 OA
ATOM     13  C   UNL     1      11.097   8.838 -27.450  1.00  0.00     0.278 C 
ENDBRANCH   7  12
BRANCH   8  14
ATOM     14  O   UNL     1      13.258   8.136 -24.082  1.00  0.00    -0.504 OA
ATOM     15  H   UNL     1      13.052   8.430 -23.134  1.00  0.00     0.293 HD
ENDBRANCH   8  14
ENDBRANCH   5   6
ENDBRANCH   2   4
ENDBRANCH   1   2
BRANCH   1  16
ATOM     16  C   UNL     1      17.388  12.482 -31.115  1.00  0.00     0.163 C 
ATOM     17  O   UNL     1      16.896  11.329 -31.246  1.00  0.00    -0.294 OA
BRANCH  16  18
ATOM     18  C   UNL     1      18.298  13.034 -32.138  1.00  0.00     0.048 C 
ATOM     19  C   UNL     1      18.522  12.428 -33.310  1.00  0.00     0.012 C 
BRANCH  19  20
ATOM     20  C   UNL     1      19.346  13.038 -34.379  1.00  0.00    -0.022 A 
ATOM     21  C   UNL     1      19.140  12.733 -35.740  1.00  0.00     0.058 A 
ATOM     22  C   UNL     1      20.396  13.895 -34.024  1.00  0.00     0.012 A 
ATOM     23  C   UNL     1      19.955  13.305 -36.737  1.00  0.00     0.161 A 
ATOM     24  C   UNL     1      21.204  14.470 -35.008  1.00  0.00     0.051 A 
ATOM     25  C   UNL     1      20.987  14.183 -36.359  1.00  0.00     0.157 A 
BRANCH  23  26
ATOM     26  O   UNL     1      19.772  13.018 -38.099  1.00  0.00    -0.493 OA
ATOM     27  C   UNL     1      18.508  12.975 -38.754  1.00  0.00     0.278 C 
ENDBRANCH  23  26
BRANCH  25  28
ATOM     28  O   UNL     1      21.814  14.776 -37.313  1.00  0.00    -0.504 OA
ATOM     29  H   UNL     1      22.819  14.652 -37.308  1.00  0.00     0.293 HD
ENDBRANCH  25  28
ENDBRANCH  19  20
ENDBRANCH  16  18
ENDBRANCH   1  16
TORSDOF 10
ENDMDL
MODEL 7
REMARK VINA RESULT:    -8.392      3.033      9.094
REMARK INTER + INTRA:         -14.383
REMARK INTER:                 -13.826
REMARK INTRA:                  -0.557
REMARK UNBOUND:                -1.575
REMARK SMILES COc1cc(/C=C/C(=O)CC(=O)/C=C/c2ccc(O)c(OC)c2)ccc1O
REMARK SMILES IDX 10 1 8 2 9 3 7 4 6 5 5 6 3 7 26 8 4 9 25 10 24 11 2 12 1 13
REMARK SMILES IDX 27 14 11 16 12 17 13 18 14 19 15 20 23 21 16 22 20 23 17 24
REMARK SMILES IDX 18 25 21 26 22 27 19 28
REMARK H PARENT 27 15 19 29
REMARK Flexibility Score: inf
ROOT
ATOM      1  C   UNL     1      17.610  13.076 -29.422  1.00  0.00     0.160 C 
ENDROOT
BRANCH   1   2
ATOM      2  C   UNL     1      18.081  12.682 -28.052  1.00  0.00     0.163 C 
ATOM      3  O   UNL     1      19.134  13.196 -27.588  1.00  0.00    -0.294 OA
BRANCH   2   4
ATOM      4  C   UNL     1      17.348  11.648 -27.291  1.00  0.00     0.048 C 
ATOM      5  C   UNL     1      16.009  11.613 -27.236  1.00  0.00     0.012 C 
BRANCH   5   6
ATOM      6  C   UNL     1      15.251  10.660 -26.388  1.00  0.00    -0.022 A 
ATOM      7  C   UNL     1      13.423   9.074 -26.014  1.00  0.00     0.161 A 
ATOM      8  C   UNL     1      13.895   8.848 -24.714  1.00  0.00     0.157 A 
ATOM      9  C   UNL     1      14.100   9.987 -26.846  1.00  0.00     0.058 A 
ATOM     10  C   UNL     1      15.024   9.531 -24.248  1.00  0.00     0.051 A 
ATOM     11  C   UNL     1      15.693  10.432 -25.077  1.00  0.00     0.012 A 
BRANCH   7  12
ATOM     12  O   UNL     1      12.286   8.370 -26.442  1.00  0.00    -0.493 OA
ATOM     13  C   UNL     1      11.361   8.847 -27.413  1.00  0.00     0.278 C 
ENDBRANCH   7  12
BRANCH   8  14
ATOM     14  O   UNL     1      13.232   7.941 -23.888  1.00  0.00    -0.504 OA
ATOM     15  H   UNL     1      12.427   8.216 -23.336  1.00  0.00     0.293 HD
ENDBRANCH   8  14
ENDBRANCH   5   6
ENDBRANCH   2   4
ENDBRANCH   1   2
BRANCH   1  16
ATOM     16  C   UNL     1      18.479  12.436 -30.466  1.00  0.00     0.163 C 
ATOM     17  O   UNL     1      19.129  11.394 -30.180  1.00  0.00    -0.294 OA
BRANCH  16  18
ATOM     18  C   UNL     1      18.517  12.997 -31.831  1.00  0.00     0.048 C 
ATOM     19  C   UNL     1      18.802  12.258 -32.910  1.00  0.00     0.012 C 
BRANCH  19  20
ATOM     20  C   UNL     1      18.730  12.796 -34.288  1.00  0.00    -0.022 A 
ATOM     21  C   UNL     1      19.697  13.691 -34.787  1.00  0.00     0.058 A 
ATOM     22  C   UNL     1      17.639  12.451 -35.096  1.00  0.00     0.012 A 
ATOM     23  C   UNL     1      19.592  14.210 -36.092  1.00  0.00     0.161 A 
ATOM     24  C   UNL     1      17.531  12.958 -36.393  1.00  0.00     0.051 A 
ATOM     25  C   UNL     1      18.501  13.830 -36.896  1.00  0.00     0.157 A 
BRANCH  23  26
ATOM     26  O   UNL     1      20.541  15.104 -36.615  1.00  0.00    -0.493 OA
ATOM     27  C   UNL     1      21.951  14.908 -36.561  1.00  0.00     0.278 C 
ENDBRANCH  23  26
BRANCH  25  28
ATOM     28  O   UNL     1      18.361  14.316 -38.196  1.00  0.00    -0.504 OA
ATOM     29  H   UNL     1      18.944  13.992 -38.959  1.00  0.00     0.293 HD
ENDBRANCH  25  28
ENDBRANCH  19  20
ENDBRANCH  16  18
ENDBRANCH   1  16
TORSDOF 10
ENDMDL
MODEL 8
REMARK VINA RESULT:    -8.380      3.269      8.728
REMARK INTER + INTRA:         -14.365
REMARK INTER:                 -13.590
REMARK INTRA:                  -0.775
REMARK UNBOUND:                -1.575
REMARK SMILES COc1cc(/C=C/C(=O)CC(=O)/C=C/c2ccc(O)c(OC)c2)ccc1O
REMARK SMILES IDX 10 1 8 2 9 3 7 4 6 5 5 6 3 7 26 8 4 9 25 10 24 11 2 12 1 13
REMARK SMILES IDX 27 14 11 16 12 17 13 18 14 19 15 20 23 21 16 22 20 23 17 24
REMARK SMILES IDX 18 25 21 26 22 27 19 28
REMARK H PARENT 27 15 19 29
REMARK Flexibility Score: inf
ROOT
ATOM      1  C   UNL     1      15.378  12.122 -31.468  1.00  0.00     0.160 C 
ENDROOT
BRANCH   1   2
ATOM      2  C   UNL     1      15.459  12.353 -29.987  1.00  0.00     0.163 C 
ATOM      3  O   UNL     1      16.248  13.227 -29.539  1.00  0.00    -0.294 OA
BRANCH   2   4
ATOM      4  C   UNL     1      14.667  11.510 -29.066  1.00  0.00     0.048 C 
ATOM      5  C   UNL     1      13.860  10.534 -29.503  1.00  0.00     0.012 C 
BRANCH   5   6
ATOM      6  C   UNL     1      12.968   9.751 -28.613  1.00  0.00    -0.022 A 
ATOM      7  C   UNL     1      12.341   8.848 -26.424  1.00  0.00     0.161 A 
ATOM      8  C   UNL     1      11.200   8.270 -26.997  1.00  0.00     0.157 A 
ATOM      9  C   UNL     1      13.227   9.582 -27.237  1.00  0.00     0.058 A 
ATOM     10  C   UNL     1      10.951   8.418 -28.366  1.00  0.00     0.051 A 
ATOM     11  C   UNL     1      11.829   9.148 -29.167  1.00  0.00     0.012 A 
BRANCH   7  12
ATOM     12  O   UNL     1      12.556   8.674 -25.047  1.00  0.00    -0.493 OA
ATOM     13  C   UNL     1      13.822   8.794 -24.407  1.00  0.00     0.278 C 
ENDBRANCH   7  12
BRANCH   8  14
ATOM     14  O   UNL     1      10.317   7.548 -26.196  1.00  0.00    -0.504 OA
ATOM     15  H   UNL     1      10.344   6.535 -26.155  1.00  0.00     0.293 HD
ENDBRANCH   8  14
ENDBRANCH   5   6
ENDBRANCH   2   4
ENDBRANCH   1   2
BRANCH   1  16
ATOM     16  C   UNL     1      16.578  11.348 -31.932  1.00  0.00     0.163 C 
ATOM     17  O   UNL     1      16.868  10.257 -31.371  1.00  0.00    -0.294 OA
BRANCH  16  18
ATOM     18  C   UNL     1      17.369  11.840 -33.077  1.00  0.00     0.048 C 
ATOM     19  C   UNL     1      18.313  12.781 -32.953  1.00  0.00     0.012 C 
BRANCH  19  20
ATOM     20  C   UNL     1      19.182  13.193 -34.080  1.00  0.00    -0.022 A 
ATOM     21  C   UNL     1      20.315  14.007 -33.883  1.00  0.00     0.058 A 
ATOM     22  C   UNL     1      18.834  12.811 -35.382  1.00  0.00     0.012 A 
ATOM     23  C   UNL     1      21.111  14.408 -34.975  1.00  0.00     0.161 A 
ATOM     24  C   UNL     1      19.622  13.201 -36.468  1.00  0.00     0.051 A 
ATOM     25  C   UNL     1      20.758  13.992 -36.271  1.00  0.00     0.157 A 
BRANCH  23  26
ATOM     26  O   UNL     1      22.245  15.220 -34.808  1.00  0.00    -0.493 OA
ATOM     27  C   UNL     1      23.479  14.780 -34.246  1.00  0.00     0.278 C 
ENDBRANCH  23  26
BRANCH  25  28
ATOM     28  O   UNL     1      21.520  14.361 -37.379  1.00  0.00    -0.504 OA
ATOM     29  H   UNL     1      21.109  14.793 -38.198  1.00  0.00     0.293 HD
ENDBRANCH  25  28
ENDBRANCH  19  20
ENDBRANCH  16  18
ENDBRANCH   1  16
TORSDOF 10
ENDMDL
MODEL 9
REMARK VINA RESULT:    -8.354      1.538      2.448
REMARK INTER + INTRA:         -14.325
REMARK INTER:                 -13.048
REMARK INTRA:                  -1.277
REMARK UNBOUND:                -1.575
REMARK SMILES COc1cc(/C=C/C(=O)CC(=O)/C=C/c2ccc(O)c(OC)c2)ccc1O
REMARK SMILES IDX 10 1 8 2 9 3 7 4 6 5 5 6 3 7 26 8 4 9 25 10 24 11 2 12 1 13
REMARK SMILES IDX 27 14 11 16 12 17 13 18 14 19 15 20 23 21 16 22 20 23 17 24
REMARK SMILES IDX 18 25 21 26 22 27 19 28
REMARK H PARENT 27 15 19 29
REMARK Flexibility Score: inf
ROOT
ATOM      1  C   UNL     1      12.884  10.924 -27.973  1.00  0.00     0.160 C 
ENDROOT
BRANCH   1   2
ATOM      2  C   UNL     1      13.016  10.429 -29.385  1.00  0.00     0.163 C 
ATOM      3  O   UNL     1      12.277   9.489 -29.783  1.00  0.00    -0.294 OA
BRANCH   2   4
ATOM      4  C   UNL     1      14.053  10.999 -30.271  1.00  0.00     0.048 C 
ATOM      5  C   UNL     1      15.222  10.382 -30.494  1.00  0.00     0.012 C 
BRANCH   5   6
ATOM      6  C   UNL     1      16.325  10.983 -31.284  1.00  0.00    -0.022 A 
ATOM      7  C   UNL     1      17.222  12.017 -33.315  1.00  0.00     0.161 A 
ATOM      8  C   UNL     1      18.472  12.137 -32.694  1.00  0.00     0.157 A 
ATOM      9  C   UNL     1      16.152  11.433 -32.609  1.00  0.00     0.058 A 
ATOM     10  C   UNL     1      18.653  11.671 -31.387  1.00  0.00     0.051 A 
ATOM     11  C   UNL     1      17.590  11.096 -30.690  1.00  0.00     0.012 A 
BRANCH   7  12
ATOM     12  O   UNL     1      17.082  12.494 -34.629  1.00  0.00    -0.493 OA
ATOM     13  C   UNL     1      17.069  11.670 -35.789  1.00  0.00     0.278 C 
ENDBRANCH   7  12
BRANCH   8  14
ATOM     14  O   UNL     1      19.533  12.719 -33.386  1.00  0.00    -0.504 OA
ATOM     15  H   UNL     1      20.493  12.437 -33.222  1.00  0.00     0.293 HD
ENDBRANCH   8  14
ENDBRANCH   5   6
ENDBRANCH   2   4
ENDBRANCH   1   2
BRANCH   1  16
ATOM     16  C   UNL     1      13.560   9.971 -27.031  1.00  0.00     0.163 C 
ATOM     17  O   UNL     1      12.989   8.889 -26.725  1.00  0.00    -0.294 OA
BRANCH  16  18
ATOM     18  C   UNL     1      14.911  10.280 -26.521  1.00  0.00     0.048 C 
ATOM     19  C   UNL     1      15.868  10.819 -27.286  1.00  0.00     0.012 C 
BRANCH  19  20
ATOM     20  C   UNL     1      17.184  11.232 -26.746  1.00  0.00    -0.022 A 
ATOM     21  C   UNL     1      17.841  10.489 -25.746  1.00  0.00     0.058 A 
ATOM     22  C   UNL     1      17.761  12.425 -27.200  1.00  0.00     0.012 A 
ATOM     23  C   UNL     1      19.080  10.917 -25.228  1.00  0.00     0.161 A 
ATOM     24  C   UNL     1      18.991  12.852 -26.695  1.00  0.00     0.051 A 
ATOM     25  C   UNL     1      19.654  12.104 -25.717  1.00  0.00     0.157 A 
BRANCH  23  26
ATOM     26  O   UNL     1      19.757  10.196 -24.231  1.00  0.00    -0.493 OA
ATOM     27  C   UNL     1      20.871   9.340 -24.467  1.00  0.00     0.278 C 
ENDBRANCH  23  26
BRANCH  25  28
ATOM     28  O   UNL     1      20.881  12.562 -25.237  1.00  0.00    -0.504 OA
ATOM     29  H   UNL     1      21.417  13.275 -25.718  1.00  0.00     0.293 HD
ENDBRANCH  25  28
ENDBRANCH  19  20
ENDBRANCH  16  18
ENDBRANCH   1  16
TORSDOF 10
ENDMDL
MODEL 10
REMARK VINA RESULT:    -8.323      3.081      8.984
REMARK INTER + INTRA:         -14.277
REMARK INTER:                 -13.510
REMARK INTRA:                  -0.767
REMARK UNBOUND:                -1.575
REMARK SMILES COc1cc(/C=C/C(=O)CC(=O)/C=C/c2ccc(O)c(OC)c2)ccc1O
REMARK SMILES IDX 10 1 8 2 9 3 7 4 6 5 5 6 3 7 26 8 4 9 25 10 24 11 2 12 1 13
REMARK SMILES IDX 27 14 11 16 12 17 13 18 14 19 15 20 23 21 16 22 20 23 17 24
REMARK SMILES IDX 18 25 21 26 22 27 19 28
REMARK H PARENT 27 15 19 29
REMARK Flexibility Score: inf
ROOT
ATOM      1  C   UNL     1      15.294  12.151 -31.715  1.00  0.00     0.160 C 
ENDROOT
BRANCH   1   2
ATOM      2  C   UNL     1      15.453  12.415 -30.246  1.00  0.00     0.163 C 
ATOM      3  O   UNL     1      16.306  13.258 -29.857  1.00  0.00    -0.294 OA
BRANCH   2   4
ATOM      4  C   UNL     1      14.662  11.639 -29.268  1.00  0.00     0.048 C 
ATOM      5  C   UNL     1      13.816  10.669 -29.640  1.00  0.00     0.012 C 
BRANCH   5   6
ATOM      6  C   UNL     1      12.925   9.954 -28.693  1.00  0.00    -0.022 A 
ATOM      7  C   UNL     1      12.464   8.886 -26.537  1.00  0.00     0.161 A 
ATOM      8  C   UNL     1      11.152   8.628 -26.954  1.00  0.00     0.157 A 
ATOM      9  C   UNL     1      13.351   9.544 -27.413  1.00  0.00     0.058 A 
ATOM     10  C   UNL     1      10.732   9.013 -28.232  1.00  0.00     0.051 A 
ATOM     11  C   UNL     1      11.612   9.667 -29.095  1.00  0.00     0.012 A 
BRANCH   7  12
ATOM     12  O   UNL     1      12.847   8.481 -25.249  1.00  0.00    -0.493 OA
ATOM     13  C   UNL     1      13.666   9.247 -24.371  1.00  0.00     0.278 C 
ENDBRANCH   7  12
BRANCH   8  14
ATOM     14  O   UNL     1      10.268   7.982 -26.089  1.00  0.00    -0.504 OA
ATOM     15  H   UNL     1      10.495   7.835 -25.112  1.00  0.00     0.293 HD
ENDBRANCH   8  14
ENDBRANCH   5   6
ENDBRANCH   2   4
ENDBRANCH   1   2
BRANCH   1  16
ATOM     16  C   UNL     1      16.424  11.294 -32.207  1.00  0.00     0.163 C 
ATOM     17  O   UNL     1      16.626  10.168 -31.676  1.00  0.00    -0.294 OA
BRANCH  16  18
ATOM     18  C   UNL     1      17.249  11.750 -33.343  1.00  0.00     0.048 C 
ATOM     19  C   UNL     1      18.001  12.856 -33.294  1.00  0.00     0.012 C 
BRANCH  19  20
ATOM     20  C   UNL     1      18.913  13.251 -34.392  1.00  0.00    -0.022 A 
ATOM     21  C   UNL     1      18.552  13.102 -35.746  1.00  0.00     0.058 A 
ATOM     22  C   UNL     1      20.191  13.729 -34.076  1.00  0.00     0.012 A 
ATOM     23  C   UNL     1      19.448  13.459 -36.773  1.00  0.00     0.161 A 
ATOM     24  C   UNL     1      21.082  14.090 -35.090  1.00  0.00     0.051 A 
ATOM     25  C   UNL     1      20.716  13.961 -36.433  1.00  0.00     0.157 A 
BRANCH  23  26
ATOM     26  O   UNL     1      19.114  13.320 -38.130  1.00  0.00    -0.493 OA
ATOM     27  C   UNL     1      17.865  12.829 -38.610  1.00  0.00     0.278 C 
ENDBRANCH  23  26
BRANCH  25  28
ATOM     28  O   UNL     1      21.632  14.333 -37.418  1.00  0.00    -0.504 OA
ATOM     29  H   UNL     1      22.623  14.135 -37.336  1.00  0.00     0.293 HD
ENDBRANCH  25  28
ENDBRANCH  19  20
ENDBRANCH  16  18
ENDBRANCH   1  16
TORSDOF 10
ENDMDL
MODEL 11
REMARK VINA RESULT:    -8.277      1.851      5.987
REMARK INTER + INTRA:         -14.207
REMARK INTER:                 -12.874
REMARK INTRA:                  -1.333
REMARK UNBOUND:                -1.575
REMARK SMILES COc1cc(/C=C/C(=O)CC(=O)/C=C/c2ccc(O)c(OC)c2)ccc1O
REMARK SMILES IDX 10 1 8 2 9 3 7 4 6 5 5 6 3 7 26 8 4 9 25 10 24 11 2 12 1 13
REMARK SMILES IDX 27 14 11 16 12 17 13 18 14 19 15 20 23 21 16 22 20 23 17 24
REMARK SMILES IDX 18 25 21 26 22 27 19 28
REMARK H PARENT 27 15 19 29
REMARK Flexibility Score: inf
ROOT
ATOM      1  C   UNL     1      17.719  11.082 -27.628  1.00  0.00     0.160 C 
ENDROOT
BRANCH   1   2
ATOM      2  C   UNL     1      17.723  12.461 -28.221  1.00  0.00     0.163 C 
ATOM      3  O   UNL     1      17.878  13.459 -27.466  1.00  0.00    -0.294 OA
BRANCH   2   4
ATOM      4  C   UNL     1      17.477  12.642 -29.667  1.00  0.00     0.048 C 
ATOM      5  C   UNL     1      17.309  11.606 -30.500  1.00  0.00     0.012 C 
BRANCH   5   6
ATOM      6  C   UNL     1      17.177  11.753 -31.971  1.00  0.00    -0.022 A 
ATOM      7  C   UNL     1      17.954  12.569 -34.146  1.00  0.00     0.161 A 
ATOM      8  C   UNL     1      16.857  11.952 -34.761  1.00  0.00     0.157 A 
ATOM      9  C   UNL     1      18.107  12.473 -32.748  1.00  0.00     0.058 A 
ATOM     10  C   UNL     1      15.920  11.256 -33.990  1.00  0.00     0.051 A 
ATOM     11  C   UNL     1      16.076  11.161 -32.607  1.00  0.00     0.012 A 
BRANCH   7  12
ATOM     12  O   UNL     1      18.870  13.260 -34.955  1.00  0.00    -0.493 OA
ATOM     13  C   UNL     1      20.205  12.835 -35.207  1.00  0.00     0.278 C 
ENDBRANCH   7  12
BRANCH   8  14
ATOM     14  O   UNL     1      16.704  12.039 -36.145  1.00  0.00    -0.504 OA
ATOM     15  H   UNL     1      16.500  12.921 -36.602  1.00  0.00     0.293 HD
ENDBRANCH   8  14
ENDBRANCH   5   6
ENDBRANCH   2   4
ENDBRANCH   1   2
BRANCH   1  16
ATOM     16  C   UNL     1      16.597  10.952 -26.640  1.00  0.00     0.163 C 
ATOM     17  O   UNL     1      16.847  11.003 -25.405  1.00  0.00    -0.294 OA
BRANCH  16  18
ATOM     18  C   UNL     1      15.207  10.828 -27.122  1.00  0.00     0.048 C 
ATOM     19  C   UNL     1      14.894  10.244 -28.285  1.00  0.00     0.012 C 
BRANCH  19  20
ATOM     20  C   UNL     1      13.494  10.020 -28.714  1.00  0.00    -0.022 A 
ATOM     21  C   UNL     1      12.559   9.368 -27.885  1.00  0.00     0.058 A 
ATOM     22  C   UNL     1      13.106  10.414 -30.001  1.00  0.00     0.012 A 
ATOM     23  C   UNL     1      11.240   9.142 -28.327  1.00  0.00     0.161 A 
ATOM     24  C   UNL     1      11.799  10.197 -30.443  1.00  0.00     0.051 A 
ATOM     25  C   UNL     1      10.865   9.569 -29.613  1.00  0.00     0.157 A 
BRANCH  23  26
ATOM     26  O   UNL     1      10.289   8.495 -27.521  1.00  0.00    -0.493 OA
ATOM     27  C   UNL     1      10.596   7.506 -26.543  1.00  0.00     0.278 C 
ENDBRANCH  23  26
BRANCH  25  28
ATOM     28  O   UNL     1       9.569   9.371 -30.089  1.00  0.00    -0.504 OA
ATOM     29  H   UNL     1       8.792   9.953 -29.798  1.00  0.00     0.293 HD
ENDBRANCH  25  28
ENDBRANCH  19  20
ENDBRANCH  16  18
ENDBRANCH   1  16
TORSDOF 10
ENDMDL
MODEL 12
REMARK VINA RESULT:    -8.141      3.148      5.163
REMARK INTER + INTRA:         -14.000
REMARK INTER:                 -13.278
REMARK INTRA:                  -0.722
REMARK UNBOUND:                -1.575
REMARK SMILES COc1cc(/C=C/C(=O)CC(=O)/C=C/c2ccc(O)c(OC)c2)ccc1O
REMARK SMILES IDX 10 1 8 2 9 3 7 4 6 5 5 6 3 7 26 8 4 9 25 10 24 11 2 12 1 13
REMARK SMILES IDX 27 14 11 16 12 17 13 18 14 19 15 20 23 21 16 22 20 23 17 24
REMARK SMILES IDX 18 25 21 26 22 27 19 28
REMARK H PARENT 27 15 19 29
REMARK Flexibility Score: inf
ROOT
ATOM      1  C   UNL     1      15.233  12.070 -31.285  1.00  0.00     0.160 C 
ENDROOT
BRANCH   1   2
ATOM      2  C   UNL     1      16.177  11.085 -31.910  1.00  0.00     0.163 C 
ATOM      3  O   UNL     1      16.292   9.934 -31.410  1.00  0.00    -0.294 OA
BRANCH   2   4
ATOM      4  C   UNL     1      17.012  11.493 -33.060  1.00  0.00     0.048 C 
ATOM      5  C   UNL     1      18.109  12.248 -32.916  1.00  0.00     0.012 C 
BRANCH   5   6
ATOM      6  C   UNL     1      18.900  12.768 -34.060  1.00  0.00    -0.022 A 
ATOM      7  C   UNL     1      20.681  14.153 -35.012  1.00  0.00     0.161 A 
ATOM      8  C   UNL     1      20.362  13.674 -36.289  1.00  0.00     0.157 A 
ATOM      9  C   UNL     1      19.942  13.703 -33.899  1.00  0.00     0.058 A 
ATOM     10  C   UNL     1      19.314  12.762 -36.455  1.00  0.00     0.051 A 
ATOM     11  C   UNL     1      18.587  12.316 -35.350  1.00  0.00     0.012 A 
BRANCH   7  12
ATOM     12  O   UNL     1      21.738  15.069 -34.888  1.00  0.00    -0.493 OA
ATOM     13  C   UNL     1      23.045  14.736 -34.432  1.00  0.00     0.278 C 
ENDBRANCH   7  12
BRANCH   8  14
ATOM     14  O   UNL     1      21.094  14.111 -37.392  1.00  0.00    -0.504 OA
ATOM     15  H   UNL     1      21.785  14.848 -37.312  1.00  0.00     0.293 HD
ENDBRANCH   8  14
ENDBRANCH   5   6
ENDBRANCH   2   4
ENDBRANCH   1   2
BRANCH   1  16
ATOM     16  C   UNL     1      15.142  11.826 -29.806  1.00  0.00     0.163 C 
ATOM     17  O   UNL     1      14.059  11.413 -29.310  1.00  0.00    -0.294 OA
BRANCH  16  18
ATOM     18  C   UNL     1      16.336  12.013 -28.959  1.00  0.00     0.048 C 
ATOM     19  C   UNL     1      16.465  11.445 -27.754  1.00  0.00     0.012 C 
BRANCH  19  20
ATOM     20  C   UNL     1      17.709  11.541 -26.955  1.00  0.00    -0.022 A 
ATOM     21  C   UNL     1      18.138  10.489 -26.121  1.00  0.00     0.058 A 
ATOM     22  C   UNL     1      18.446  12.732 -26.984  1.00  0.00     0.012 A 
ATOM     23  C   UNL     1      19.310  10.615 -25.349  1.00  0.00     0.161 A 
ATOM     24  C   UNL     1      19.611  12.862 -26.225  1.00  0.00     0.051 A 
ATOM     25  C   UNL     1      20.048  11.811 -25.413  1.00  0.00     0.157 A 
BRANCH  23  26
ATOM     26  O   UNL     1      19.761   9.583 -24.510  1.00  0.00    -0.493 OA
ATOM     27  C   UNL     1      18.934   8.546 -23.988  1.00  0.00     0.278 C 
ENDBRANCH  23  26
BRANCH  25  28
ATOM     28  O   UNL     1      21.217  11.976 -24.671  1.00  0.00    -0.504 OA
ATOM     29  H   UNL     1      21.251  11.808 -23.672  1.00  0.00     0.293 HD
ENDBRANCH  25  28
ENDBRANCH  19  20
ENDBRANCH  16  18
ENDBRANCH   1  16
TORSDOF 10
ENDMDL
MODEL 13
REMARK VINA RESULT:    -8.139      2.901      8.699
REMARK INTER + INTRA:         -13.997
REMARK INTER:                 -13.401
REMARK INTRA:                  -0.596
REMARK UNBOUND:                -1.575
REMARK SMILES COc1cc(/C=C/C(=O)CC(=O)/C=C/c2ccc(O)c(OC)c2)ccc1O
REMARK SMILES IDX 10 1 8 2 9 3 7 4 6 5 5 6 3 7 26 8 4 9 25 10 24 11 2 12 1 13
REMARK SMILES IDX 27 14 11 16 12 17 13 18 14 19 15 20 23 21 16 22 20 23 17 24
REMARK SMILES IDX 18 25 21 26 22 27 19 28
REMARK H PARENT 27 15 19 29
REMARK Flexibility Score: inf
ROOT
ATOM      1  C   UNL     1      16.633  12.879 -30.091  1.00  0.00     0.160 C 
ENDROOT
BRANCH   1   2
ATOM      2  C   UNL     1      16.635  11.427 -29.709  1.00  0.00     0.163 C 
ATOM      3  O   UNL     1      17.721  10.786 -29.718  1.00  0.00    -0.294 OA
BRANCH   2   4
ATOM      4  C   UNL     1      15.362  10.747 -29.393  1.00  0.00     0.048 C 
ATOM      5  C   UNL     1      14.894  10.647 -28.141  1.00  0.00     0.012 C 
BRANCH   5   6
ATOM      6  C   UNL     1      13.681   9.872 -27.781  1.00  0.00    -0.022 A 
ATOM      7  C   UNL     1      11.570   8.765 -28.345  1.00  0.00     0.161 A 
ATOM      8  C   UNL     1      11.426   8.374 -27.007  1.00  0.00     0.157 A 
ATOM      9  C   UNL     1      12.697   9.521 -28.727  1.00  0.00     0.058 A 
ATOM     10  C   UNL     1      12.390   8.740 -26.061  1.00  0.00     0.051 A 
ATOM     11  C   UNL     1      13.505   9.486 -26.444  1.00  0.00     0.012 A 
BRANCH   7  12
ATOM     12  O   UNL     1      10.580   8.380 -29.263  1.00  0.00    -0.493 OA
ATOM     13  C   UNL     1       9.891   9.275 -30.130  1.00  0.00     0.278 C 
ENDBRANCH   7  12
BRANCH   8  14
ATOM     14  O   UNL     1      10.316   7.621 -26.625  1.00  0.00    -0.504 OA
ATOM     15  H   UNL     1       9.890   7.730 -25.712  1.00  0.00     0.293 HD
ENDBRANCH   8  14
ENDBRANCH   5   6
ENDBRANCH   2   4
ENDBRANCH   1   2
BRANCH   1  16
ATOM     16  C   UNL     1      18.036  13.413 -30.079  1.00  0.00     0.163 C 
ATOM     17  O   UNL     1      18.601  13.652 -28.977  1.00  0.00    -0.294 OA
BRANCH  16  18
ATOM     18  C   UNL     1      18.761  13.595 -31.352  1.00  0.00     0.048 C 
ATOM     19  C   UNL     1      18.429  12.944 -32.474  1.00  0.00     0.012 C 
BRANCH  19  20
ATOM     20  C   UNL     1      19.084  13.212 -33.775  1.00  0.00    -0.022 A 
ATOM     21  C   UNL     1      18.633  12.613 -34.969  1.00  0.00     0.058 A 
ATOM     22  C   UNL     1      20.216  14.035 -33.811  1.00  0.00     0.012 A 
ATOM     23  C   UNL     1      19.290  12.861 -36.191  1.00  0.00     0.161 A 
ATOM     24  C   UNL     1      20.868  14.289 -35.020  1.00  0.00     0.051 A 
ATOM     25  C   UNL     1      20.410  13.711 -36.207  1.00  0.00     0.157 A 
BRANCH  23  26
ATOM     26  O   UNL     1      18.863  12.277 -37.394  1.00  0.00    -0.493 OA
ATOM     27  C   UNL     1      17.502  12.022 -37.731  1.00  0.00     0.278 C 
ENDBRANCH  23  26
BRANCH  25  28
ATOM     28  O   UNL     1      21.086  13.989 -37.395  1.00  0.00    -0.504 OA
ATOM     29  H   UNL     1      21.496  14.896 -37.583  1.00  0.00     0.293 HD
ENDBRANCH  25  28
ENDBRANCH  19  20
ENDBRANCH  16  18
ENDBRANCH   1  16
TORSDOF 10
ENDMDL
MODEL 14
REMARK VINA RESULT:    -7.649      3.370      6.371
REMARK INTER + INTRA:         -13.249
REMARK INTER:                 -12.576
REMARK INTRA:                  -0.673
REMARK UNBOUND:                -1.575
REMARK SMILES COc1cc(/C=C/C(=O)CC(=O)/C=C/c2ccc(O)c(OC)c2)ccc1O
REMARK SMILES IDX 10 1 8 2 9 3 7 4 6 5 5 6 3 7 26 8 4 9 25 10 24 11 2 12 1 13
REMARK SMILES IDX 27 14 11 16 12 17 13 18 14 19 15 20 23 21 16 22 20 23 17 24
REMARK SMILES IDX 18 25 21 26 22 27 19 28
REMARK H PARENT 27 15 19 29
REMARK Flexibility Score: inf
ROOT
ATOM      1  C   UNL     1      14.487  11.482 -33.124  1.00  0.00     0.160 C 
ENDROOT
BRANCH   1   2
ATOM      2  C   UNL     1      15.657  11.178 -34.013  1.00  0.00     0.163 C 
ATOM      3  O   UNL     1      15.972   9.977 -34.232  1.00  0.00    -0.294 OA
BRANCH   2   4
ATOM      4  C   UNL     1      16.469  12.282 -34.566  1.00  0.00     0.048 C 
ATOM      5  C   UNL     1      17.807  12.292 -34.497  1.00  0.00     0.012 C 
BRANCH   5   6
ATOM      6  C   UNL     1      18.640  13.439 -34.939  1.00  0.00    -0.022 A 
ATOM      7  C   UNL     1      20.779  14.441 -35.584  1.00  0.00     0.161 A 
ATOM      8  C   UNL     1      20.131  15.663 -35.807  1.00  0.00     0.157 A 
ATOM      9  C   UNL     1      20.030  13.332 -35.143  1.00  0.00     0.058 A 
ATOM     10  C   UNL     1      18.754  15.779 -35.584  1.00  0.00     0.051 A 
ATOM     11  C   UNL     1      18.017  14.677 -35.149  1.00  0.00     0.012 A 
BRANCH   7  12
ATOM     12  O   UNL     1      22.162  14.368 -35.817  1.00  0.00    -0.493 OA
ATOM     13  C   UNL     1      23.146  14.231 -34.798  1.00  0.00     0.278 C 
ENDBRANCH   7  12
BRANCH   8  14
ATOM     14  O   UNL     1      20.866  16.763 -36.249  1.00  0.00    -0.504 OA
ATOM     15  H   UNL     1      21.400  16.733 -37.110  1.00  0.00     0.293 HD
ENDBRANCH   8  14
ENDBRANCH   5   6
ENDBRANCH   2   4
ENDBRANCH   1   2
BRANCH   1  16
ATOM     16  C   UNL     1      14.862  11.257 -31.688  1.00  0.00     0.163 C 
ATOM     17  O   UNL     1      15.969  11.684 -31.260  1.00  0.00    -0.294 OA
BRANCH  16  18
ATOM     18  C   UNL     1      13.909  10.592 -30.777  1.00  0.00     0.048 C 
ATOM     19  C   UNL     1      14.229  10.237 -29.527  1.00  0.00     0.012 C 
BRANCH  19  20
ATOM     20  C   UNL     1      13.241   9.673 -28.579  1.00  0.00    -0.022 A 
ATOM     21  C   UNL     1      13.497   9.601 -27.196  1.00  0.00     0.058 A 
ATOM     22  C   UNL     1      12.043   9.144 -29.079  1.00  0.00     0.012 A 
ATOM     23  C   UNL     1      12.552   9.035 -26.317  1.00  0.00     0.161 A 
ATOM     24  C   UNL     1      11.100   8.587 -28.213  1.00  0.00     0.051 A 
ATOM     25  C   UNL     1      11.346   8.534 -26.838  1.00  0.00     0.157 A 
BRANCH  23  26
ATOM     26  O   UNL     1      12.782   8.950 -24.934  1.00  0.00    -0.493 OA
ATOM     27  C   UNL     1      13.776   9.692 -24.233  1.00  0.00     0.278 C 
ENDBRANCH  23  26
BRANCH  25  28
ATOM     28  O   UNL     1      10.380   7.971 -26.003  1.00  0.00    -0.504 OA
ATOM     29  H   UNL     1       9.461   7.708 -26.341  1.00  0.00     0.293 HD
ENDBRANCH  25  28
ENDBRANCH  19  20
ENDBRANCH  16  18
ENDBRANCH   1  16
TORSDOF 10
ENDMDL
MODEL 15
REMARK VINA RESULT:    -7.502      3.289      5.574
REMARK INTER + INTRA:         -13.025
REMARK INTER:                 -11.741
REMARK INTRA:                  -1.283
REMARK UNBOUND:                -1.575
REMARK SMILES COc1cc(/C=C/C(=O)CC(=O)/C=C/c2ccc(O)c(OC)c2)ccc1O
REMARK SMILES IDX 10 1 8 2 9 3 7 4 6 5 5 6 3 7 26 8 4 9 25 10 24 11 2 12 1 13
REMARK SMILES IDX 27 14 11 16 12 17 13 18 14 19 15 20 23 21 16 22 20 23 17 24
REMARK SMILES IDX 18 25 21 26 22 27 19 28
REMARK H PARENT 27 15 19 29
REMARK Flexibility Score: inf
ROOT
ATOM      1  C   UNL     1      13.966  11.019 -34.033  1.00  0.00     0.160 C 
ENDROOT
BRANCH   1   2
ATOM      2  C   UNL     1      15.359  10.647 -34.449  1.00  0.00     0.163 C 
ATOM      3  O   UNL     1      15.753   9.459 -34.303  1.00  0.00    -0.294 OA
BRANCH   2   4
ATOM      4  C   UNL     1      16.278  11.687 -34.959  1.00  0.00     0.048 C 
ATOM      5  C   UNL     1      17.281  12.181 -34.222  1.00  0.00     0.012 C 
BRANCH   5   6
ATOM      6  C   UNL     1      18.145  13.304 -34.664  1.00  0.00    -0.022 A 
ATOM      7  C   UNL     1      20.286  14.225 -35.417  1.00  0.00     0.161 A 
ATOM      8  C   UNL     1      19.696  15.491 -35.523  1.00  0.00     0.157 A 
ATOM      9  C   UNL     1      19.508  13.134 -34.979  1.00  0.00     0.058 A 
ATOM     10  C   UNL     1      18.348  15.668 -35.190  1.00  0.00     0.051 A 
ATOM     11  C   UNL     1      17.581  14.585 -34.760  1.00  0.00     0.012 A 
BRANCH   7  12
ATOM     12  O   UNL     1      21.641  14.091 -35.758  1.00  0.00    -0.493 OA
ATOM     13  C   UNL     1      22.725  14.321 -34.864  1.00  0.00     0.278 C 
ENDBRANCH   7  12
BRANCH   8  14
ATOM     14  O   UNL     1      20.459  16.573 -35.961  1.00  0.00    -0.504 OA
ATOM     15  H   UNL     1      21.380  16.444 -36.364  1.00  0.00     0.293 HD
ENDBRANCH   8  14
ENDBRANCH   5   6
ENDBRANCH   2   4
ENDBRANCH   1   2
BRANCH   1  16
ATOM     16  C   UNL     1      13.840  10.943 -32.539  1.00  0.00     0.163 C 
ATOM     17  O   UNL     1      12.886  10.296 -32.027  1.00  0.00    -0.294 OA
BRANCH  16  18
ATOM     18  C   UNL     1      14.866  11.573 -31.685  1.00  0.00     0.048 C 
ATOM     19  C   UNL     1      15.078  11.204 -30.416  1.00  0.00     0.012 C 
BRANCH  19  20
ATOM     20  C   UNL     1      16.181  11.758 -29.597  1.00  0.00    -0.022 A 
ATOM     21  C   UNL     1      17.168  12.597 -30.152  1.00  0.00     0.058 A 
ATOM     22  C   UNL     1      16.279  11.391 -28.249  1.00  0.00     0.012 A 
ATOM     23  C   UNL     1      18.223  13.090 -29.358  1.00  0.00     0.161 A 
ATOM     24  C   UNL     1      17.319  11.880 -27.455  1.00  0.00     0.051 A 
ATOM     25  C   UNL     1      18.286  12.729 -28.001  1.00  0.00     0.157 A 
BRANCH  23  26
ATOM     26  O   UNL     1      19.219  13.928 -29.886  1.00  0.00    -0.493 OA
ATOM     27  C   UNL     1      19.435  14.152 -31.277  1.00  0.00     0.278 C 
ENDBRANCH  23  26
BRANCH  25  28
ATOM     28  O   UNL     1      19.310  13.199 -27.178  1.00  0.00    -0.504 OA
ATOM     29  H   UNL     1      20.231  13.423 -27.536  1.00  0.00     0.293 HD
ENDBRANCH  25  28
ENDBRANCH  19  20
ENDBRANCH  16  18
ENDBRANCH   1  16
TORSDOF 10
ENDMDL
MODEL 16
REMARK VINA RESULT:    -7.498      2.669      8.595
REMARK INTER + INTRA:         -13.019
REMARK INTER:                 -12.604
REMARK INTRA:                  -0.414
REMARK UNBOUND:                -1.575
REMARK SMILES COc1cc(/C=C/C(=O)CC(=O)/C=C/c2ccc(O)c(OC)c2)ccc1O
REMARK SMILES IDX 10 1 8 2 9 3 7 4 6 5 5 6 3 7 26 8 4 9 25 10 24 11 2 12 1 13
REMARK SMILES IDX 27 14 11 16 12 17 13 18 14 19 15 20 23 21 16 22 20 23 17 24
REMARK SMILES IDX 18 25 21 26 22 27 19 28
REMARK H PARENT 27 15 19 29
REMARK Flexibility Score: inf
ROOT
ATOM      1  C   UNL     1      17.661  11.285 -29.715  1.00  0.00     0.160 C 
ENDROOT
BRANCH   1   2
ATOM      2  C   UNL     1      16.880  11.157 -28.440  1.00  0.00     0.163 C 
ATOM      3  O   UNL     1      17.489  11.173 -27.337  1.00  0.00    -0.294 OA
BRANCH   2   4
ATOM      4  C   UNL     1      15.418  10.945 -28.490  1.00  0.00     0.048 C 
ATOM      5  C   UNL     1      14.860   9.961 -29.208  1.00  0.00     0.012 C 
BRANCH   5   6
ATOM      6  C   UNL     1      13.395   9.796 -29.369  1.00  0.00    -0.022 A 
ATOM      7  C   UNL     1      11.234   8.851 -28.706  1.00  0.00     0.161 A 
ATOM      8  C   UNL     1      10.612   9.569 -29.735  1.00  0.00     0.157 A 
ATOM      9  C   UNL     1      12.628   8.961 -28.531  1.00  0.00     0.058 A 
ATOM     10  C   UNL     1      11.373  10.382 -30.583  1.00  0.00     0.051 A 
ATOM     11  C   UNL     1      12.752  10.490 -30.404  1.00  0.00     0.012 A 
BRANCH   7  12
ATOM     12  O   UNL     1      10.436   8.045 -27.879  1.00  0.00    -0.493 OA
ATOM     13  C   UNL     1      10.633   7.882 -26.478  1.00  0.00     0.278 C 
ENDBRANCH   7  12
BRANCH   8  14
ATOM     14  O   UNL     1       9.232   9.468 -29.910  1.00  0.00    -0.504 OA
ATOM     15  H   UNL     1       8.637  10.289 -29.920  1.00  0.00     0.293 HD
ENDBRANCH   8  14
ENDBRANCH   5   6
ENDBRANCH   2   4
ENDBRANCH   1   2
BRANCH   1  16
ATOM     16  C   UNL     1      18.205  12.678 -29.845  1.00  0.00     0.163 C 
ATOM     17  O   UNL     1      18.449  13.349 -28.806  1.00  0.00    -0.294 OA
BRANCH  16  18
ATOM     18  C   UNL     1      18.504  13.225 -31.183  1.00  0.00     0.048 C 
ATOM     19  C   UNL     1      17.643  13.153 -32.204  1.00  0.00     0.012 C 
BRANCH  19  20
ATOM     20  C   UNL     1      17.898  13.801 -33.512  1.00  0.00    -0.022 A 
ATOM     21  C   UNL     1      17.509  13.200 -34.726  1.00  0.00     0.058 A 
ATOM     22  C   UNL     1      18.597  15.014 -33.545  1.00  0.00     0.012 A 
ATOM     23  C   UNL     1      17.788  13.823 -35.958  1.00  0.00     0.161 A 
ATOM     24  C   UNL     1      18.871  15.640 -34.763  1.00  0.00     0.051 A 
ATOM     25  C   UNL     1      18.468  15.054 -35.967  1.00  0.00     0.157 A 
BRANCH  23  26
ATOM     26  O   UNL     1      17.412  13.246 -37.183  1.00  0.00    -0.493 OA
ATOM     27  C   UNL     1      17.783  11.938 -37.608  1.00  0.00     0.278 C 
ENDBRANCH  23  26
BRANCH  25  28
ATOM     28  O   UNL     1      18.759  15.708 -37.164  1.00  0.00    -0.504 OA
ATOM     29  H   UNL     1      18.064  16.245 -37.669  1.00  0.00     0.293 HD
ENDBRANCH  25  28
ENDBRANCH  19  20
ENDBRANCH  16  18
ENDBRANCH   1  16
TORSDOF 10
ENDMDL
MODEL 17
REMARK VINA RESULT:    -7.473      2.876      4.552
REMARK INTER + INTRA:         -12.980
REMARK INTER:                 -12.432
REMARK INTRA:                  -0.548
REMARK UNBOUND:                -1.575
REMARK SMILES COc1cc(/C=C/C(=O)CC(=O)/C=C/c2ccc(O)c(OC)c2)ccc1O
REMARK SMILES IDX 10 1 8 2 9 3 7 4 6 5 5 6 3 7 26 8 4 9 25 10 24 11 2 12 1 13
REMARK SMILES IDX 27 14 11 16 12 17 13 18 14 19 15 20 23 21 16 22 20 23 17 24
REMARK SMILES IDX 18 25 21 26 22 27 19 28
REMARK H PARENT 27 15 19 29
REMARK Flexibility Score: inf
ROOT
ATOM      1  C   UNL     1      14.872  10.958 -30.707  1.00  0.00     0.160 C 
ENDROOT
BRANCH   1   2
ATOM      2  C   UNL     1      16.239  10.698 -31.271  1.00  0.00     0.163 C 
ATOM      3  O   UNL     1      16.995   9.864 -30.703  1.00  0.00    -0.294 OA
BRANCH   2   4
ATOM      4  C   UNL     1      16.713  11.467 -32.441  1.00  0.00     0.048 C 
ATOM      5  C   UNL     1      17.580  12.482 -32.328  1.00  0.00     0.012 C 
BRANCH   5   6
ATOM      6  C   UNL     1      17.983  13.343 -33.467  1.00  0.00    -0.022 A 
ATOM      7  C   UNL     1      18.017  13.909 -35.850  1.00  0.00     0.161 A 
ATOM      8  C   UNL     1      18.769  15.056 -35.560  1.00  0.00     0.157 A 
ATOM      9  C   UNL     1      17.632  13.051 -34.801  1.00  0.00     0.058 A 
ATOM     10  C   UNL     1      19.138  15.337 -34.240  1.00  0.00     0.051 A 
ATOM     11  C   UNL     1      18.752  14.486 -33.204  1.00  0.00     0.012 A 
BRANCH   7  12
ATOM     12  O   UNL     1      17.670  13.661 -37.188  1.00  0.00    -0.493 OA
ATOM     13  C   UNL     1      18.470  12.924 -38.106  1.00  0.00     0.278 C 
ENDBRANCH   7  12
BRANCH   8  14
ATOM     14  O   UNL     1      19.148  15.911 -36.593  1.00  0.00    -0.504 OA
ATOM     15  H   UNL     1      19.797  15.617 -37.315  1.00  0.00     0.293 HD
ENDBRANCH   8  14
ENDBRANCH   5   6
ENDBRANCH   2   4
ENDBRANCH   1   2
BRANCH   1  16
ATOM     16  C   UNL     1      14.972  11.886 -29.531  1.00  0.00     0.163 C 
ATOM     17  O   UNL     1      13.954  12.531 -29.161  1.00  0.00    -0.294 OA
BRANCH  16  18
ATOM     18  C   UNL     1      16.241  11.988 -28.785  1.00  0.00     0.048 C 
ATOM     19  C   UNL     1      16.339  11.700 -27.481  1.00  0.00     0.012 C 
BRANCH  19  20
ATOM     20  C   UNL     1      17.633  11.694 -26.760  1.00  0.00    -0.022 A 
ATOM     21  C   UNL     1      17.983  10.656 -25.873  1.00  0.00     0.058 A 
ATOM     22  C   UNL     1      18.506  12.778 -26.920  1.00  0.00     0.012 A 
ATOM     23  C   UNL     1      19.208  10.687 -25.178  1.00  0.00     0.161 A 
ATOM     24  C   UNL     1      19.724  12.812 -26.237  1.00  0.00     0.051 A 
ATOM     25  C   UNL     1      20.081  11.773 -25.373  1.00  0.00     0.157 A 
BRANCH  23  26
ATOM     26  O   UNL     1      19.582   9.666 -24.288  1.00  0.00    -0.493 OA
ATOM     27  C   UNL     1      18.858   8.455 -24.097  1.00  0.00     0.278 C 
ENDBRANCH  23  26
BRANCH  25  28
ATOM     28  O   UNL     1      21.306  11.840 -24.709  1.00  0.00    -0.504 OA
ATOM     29  H   UNL     1      21.720  11.034 -24.257  1.00  0.00     0.293 HD
ENDBRANCH  25  28
ENDBRANCH  19  20
ENDBRANCH  16  18
ENDBRANCH   1  16
TORSDOF 10
ENDMDL
MODEL 18
REMARK VINA RESULT:    -7.208      3.048      5.429
REMARK INTER + INTRA:         -12.576
REMARK INTER:                 -11.622
REMARK INTRA:                  -0.954
REMARK UNBOUND:                -1.575
REMARK SMILES COc1cc(/C=C/C(=O)CC(=O)/C=C/c2ccc(O)c(OC)c2)ccc1O
REMARK SMILES IDX 10 1 8 2 9 3 7 4 6 5 5 6 3 7 26 8 4 9 25 10 24 11 2 12 1 13
REMARK SMILES IDX 27 14 11 16 12 17 13 18 14 19 15 20 23 21 16 22 20 23 17 24
REMARK SMILES IDX 18 25 21 26 22 27 19 28
REMARK H PARENT 27 15 19 29
REMARK Flexibility Score: inf
ROOT
ATOM      1  C   UNL     1      13.797  10.932 -33.881  1.00  0.00     0.160 C 
ENDROOT
BRANCH   1   2
ATOM      2  C   UNL     1      15.200  10.653 -34.337  1.00  0.00     0.163 C 
ATOM      3  O   UNL     1      15.644   9.474 -34.290  1.00  0.00    -0.294 OA
BRANCH   2   4
ATOM      4  C   UNL     1      16.069  11.767 -34.771  1.00  0.00     0.048 C 
ATOM      5  C   UNL     1      17.238  12.038 -34.176  1.00  0.00     0.012 C 
BRANCH   5   6
ATOM      6  C   UNL     1      18.074  13.217 -34.514  1.00  0.00    -0.022 A 
ATOM      7  C   UNL     1      20.160  14.495 -34.412  1.00  0.00     0.161 A 
ATOM      8  C   UNL     1      19.591  15.477 -35.233  1.00  0.00     0.157 A 
ATOM      9  C   UNL     1      19.395  13.369 -34.048  1.00  0.00     0.058 A 
ATOM     10  C   UNL     1      18.272  15.341 -35.679  1.00  0.00     0.051 A 
ATOM     11  C   UNL     1      17.519  14.223 -35.319  1.00  0.00     0.012 A 
BRANCH   7  12
ATOM     12  O   UNL     1      21.486  14.671 -33.983  1.00  0.00    -0.493 OA
ATOM     13  C   UNL     1      22.635  14.365 -34.767  1.00  0.00     0.278 C 
ENDBRANCH   7  12
BRANCH   8  14
ATOM     14  O   UNL     1      20.346  16.591 -35.600  1.00  0.00    -0.504 OA
ATOM     15  H   UNL     1      21.227  16.496 -36.091  1.00  0.00     0.293 HD
ENDBRANCH   8  14
ENDBRANCH   5   6
ENDBRANCH   2   4
ENDBRANCH   1   2
BRANCH   1  16
ATOM     16  C   UNL     1      13.727  10.877 -32.382  1.00  0.00     0.163 C 
ATOM     17  O   UNL     1      12.733  10.335 -31.826  1.00  0.00    -0.294 OA
BRANCH  16  18
ATOM     18  C   UNL     1      14.846  11.403 -31.577  1.00  0.00     0.048 C 
ATOM     19  C   UNL     1      14.852  11.374 -30.238  1.00  0.00     0.012 C 
BRANCH  19  20
ATOM     20  C   UNL     1      16.022  11.798 -29.435  1.00  0.00    -0.022 A 
ATOM     21  C   UNL     1      16.240  11.315 -28.130  1.00  0.00     0.058 A 
ATOM     22  C   UNL     1      16.902  12.750 -29.966  1.00  0.00     0.012 A 
ATOM     23  C   UNL     1      17.346  11.755 -27.375  1.00  0.00     0.161 A 
ATOM     24  C   UNL     1      18.003  13.186 -29.225  1.00  0.00     0.051 A 
ATOM     25  C   UNL     1      18.231  12.691 -27.938  1.00  0.00     0.157 A 
BRANCH  23  26
ATOM     26  O   UNL     1      17.587  11.290 -26.072  1.00  0.00    -0.493 OA
ATOM     27  C   UNL     1      16.720  10.419 -25.351  1.00  0.00     0.278 C 
ENDBRANCH  23  26
BRANCH  25  28
ATOM     28  O   UNL     1      19.341  13.149 -27.228  1.00  0.00    -0.504 OA
ATOM     29  H   UNL     1      19.258  13.589 -26.319  1.00  0.00     0.293 HD
ENDBRANCH  25  28
ENDBRANCH  19  20
ENDBRANCH  16  18
ENDBRANCH   1  16
TORSDOF 10
ENDMDL
MODEL 19
REMARK VINA RESULT:    -6.968      3.302      9.665
REMARK INTER + INTRA:         -12.209
REMARK INTER:                 -11.582
REMARK INTRA:                  -0.627
REMARK UNBOUND:                -1.575
REMARK SMILES COc1cc(/C=C/C(=O)CC(=O)/C=C/c2ccc(O)c(OC)c2)ccc1O
REMARK SMILES IDX 10 1 8 2 9 3 7 4 6 5 5 6 3 7 26 8 4 9 25 10 24 11 2 12 1 13
REMARK SMILES IDX 27 14 11 16 12 17 13 18 14 19 15 20 23 21 16 22 20 23 17 24
REMARK SMILES IDX 18 25 21 26 22 27 19 28
REMARK H PARENT 27 15 19 29
REMARK Flexibility Score: inf
ROOT
ATOM      1  C   UNL     1      17.497  11.313 -31.639  1.00  0.00     0.160 C 
ENDROOT
BRANCH   1   2
ATOM      2  C   UNL     1      16.224  11.718 -30.954  1.00  0.00     0.163 C 
ATOM      3  O   UNL     1      15.441  12.523 -31.528  1.00  0.00    -0.294 OA
BRANCH   2   4
ATOM      4  C   UNL     1      15.932  11.226 -29.592  1.00  0.00     0.048 C 
ATOM      5  C   UNL     1      14.784  10.607 -29.284  1.00  0.00     0.012 C 
BRANCH   5   6
ATOM      6  C   UNL     1      14.416  10.206 -27.903  1.00  0.00    -0.022 A 
ATOM      7  C   UNL     1      14.857  10.064 -25.498  1.00  0.00     0.161 A 
ATOM      8  C   UNL     1      13.618   9.435 -25.315  1.00  0.00     0.157 A 
ATOM      9  C   UNL     1      15.256  10.442 -26.796  1.00  0.00     0.058 A 
ATOM     10  C   UNL     1      12.792   9.180 -26.415  1.00  0.00     0.051 A 
ATOM     11  C   UNL     1      13.190   9.558 -27.698  1.00  0.00     0.012 A 
BRANCH   7  12
ATOM     12  O   UNL     1      15.657  10.300 -24.369  1.00  0.00    -0.493 OA
ATOM     13  C   UNL     1      17.008   9.872 -24.234  1.00  0.00     0.278 C 
ENDBRANCH   7  12
BRANCH   8  14
ATOM     14  O   UNL     1      13.215   9.064 -24.033  1.00  0.00    -0.504 OA
ATOM     15  H   UNL     1      13.596   8.245 -23.573  1.00  0.00     0.293 HD
ENDBRANCH   8  14
ENDBRANCH   5   6
ENDBRANCH   2   4
ENDBRANCH   1   2
BRANCH   1  16
ATOM     16  C   UNL     1      18.243  12.534 -32.096  1.00  0.00     0.163 C 
ATOM     17  O   UNL     1      18.723  13.325 -31.240  1.00  0.00    -0.294 OA
BRANCH  16  18
ATOM     18  C   UNL     1      18.459  12.763 -33.538  1.00  0.00     0.048 C 
ATOM     19  C   UNL     1      17.518  12.520 -34.458  1.00  0.00     0.012 C 
BRANCH  19  20
ATOM     20  C   UNL     1      17.696  12.856 -35.890  1.00  0.00    -0.022 A 
ATOM     21  C   UNL     1      17.803  14.190 -36.331  1.00  0.00     0.058 A 
ATOM     22  C   UNL     1      17.698  11.822 -36.836  1.00  0.00     0.012 A 
ATOM     23  C   UNL     1      17.945  14.485 -37.702  1.00  0.00     0.161 A 
ATOM     24  C   UNL     1      17.843  12.108 -38.195  1.00  0.00     0.051 A 
ATOM     25  C   UNL     1      17.970  13.430 -38.632  1.00  0.00     0.157 A 
BRANCH  23  26
ATOM     26  O   UNL     1      18.054  15.805 -38.169  1.00  0.00    -0.493 OA
ATOM     27  C   UNL     1      17.016  16.514 -38.839  1.00  0.00     0.278 C 
ENDBRANCH  23  26
BRANCH  25  28
ATOM     28  O   UNL     1      18.114  13.677 -39.997  1.00  0.00    -0.504 OA
ATOM     29  H   UNL     1      19.012  13.621 -40.464  1.00  0.00     0.293 HD
ENDBRANCH  25  28
ENDBRANCH  19  20
ENDBRANCH  16  18
ENDBRANCH   1  16
TORSDOF 10
ENDMDL
MODEL 20
REMARK VINA RESULT:    -6.734      3.383     10.145
REMARK INTER + INTRA:         -11.852
REMARK INTER:                 -11.182
REMARK INTRA:                  -0.670
REMARK UNBOUND:                -1.575
REMARK SMILES COc1cc(/C=C/C(=O)CC(=O)/C=C/c2ccc(O)c(OC)c2)ccc1O
REMARK SMILES IDX 10 1 8 2 9 3 7 4 6 5 5 6 3 7 26 8 4 9 25 10 24 11 2 12 1 13
REMARK SMILES IDX 27 14 11 16 12 17 13 18 14 19 15 20 23 21 16 22 20 23 17 24
REMARK SMILES IDX 18 25 21 26 22 27 19 28
REMARK H PARENT 27 15 19 29
REMARK Flexibility Score: inf
ROOT
ATOM      1  C   UNL     1      17.591  13.264 -31.632  1.00  0.00     0.160 C 
ENDROOT
BRANCH   1   2
ATOM      2  C   UNL     1      18.474  12.579 -30.629  1.00  0.00     0.163 C 
ATOM      3  O   UNL     1      19.627  12.204 -30.973  1.00  0.00    -0.294 OA
BRANCH   2   4
ATOM      4  C   UNL     1      17.962  12.292 -29.272  1.00  0.00     0.048 C 
ATOM      5  C   UNL     1      17.398  11.119 -28.953  1.00  0.00     0.012 C 
BRANCH   5   6
ATOM      6  C   UNL     1      16.773  10.844 -27.636  1.00  0.00    -0.022 A 
ATOM      7  C   UNL     1      16.896  10.345 -25.241  1.00  0.00     0.161 A 
ATOM      8  C   UNL     1      15.497  10.362 -25.173  1.00  0.00     0.157 A 
ATOM      9  C   UNL     1      17.531  10.580 -26.477  1.00  0.00     0.058 A 
ATOM     10  C   UNL     1      14.741  10.601 -26.326  1.00  0.00     0.051 A 
ATOM     11  C   UNL     1      15.374  10.836 -27.547  1.00  0.00     0.012 A 
BRANCH   7  12
ATOM     12  O   UNL     1      17.618  10.098 -24.062  1.00  0.00    -0.493 OA
ATOM     13  C   UNL     1      18.511   9.005 -23.877  1.00  0.00     0.278 C 
ENDBRANCH   7  12
BRANCH   8  14
ATOM     14  O   UNL     1      14.863  10.136 -23.952  1.00  0.00    -0.504 OA
ATOM     15  H   UNL     1      15.391  10.004 -23.096  1.00  0.00     0.293 HD
ENDBRANCH   8  14
ENDBRANCH   5   6
ENDBRANCH   2   4
ENDBRANCH   1   2
BRANCH   1  16
ATOM     16  C   UNL     1      17.256  12.318 -32.749  1.00  0.00     0.163 C 
ATOM     17  O   UNL     1      16.990  11.115 -32.484  1.00  0.00    -0.294 OA
BRANCH  16  18
ATOM     18  C   UNL     1      17.183  12.819 -34.135  1.00  0.00     0.048 C 
ATOM     19  C   UNL     1      17.843  12.245 -35.148  1.00  0.00     0.012 C 
BRANCH  19  20
ATOM     20  C   UNL     1      17.680  12.679 -36.555  1.00  0.00    -0.022 A 
ATOM     21  C   UNL     1      17.370  11.765 -37.582  1.00  0.00     0.058 A 
ATOM     22  C   UNL     1      17.899  14.023 -36.882  1.00  0.00     0.012 A 
ATOM     23  C   UNL     1      17.247  12.198 -38.917  1.00  0.00     0.161 A 
ATOM     24  C   UNL     1      17.774  14.460 -38.203  1.00  0.00     0.051 A 
ATOM     25  C   UNL     1      17.446  13.557 -39.219  1.00  0.00     0.157 A 
BRANCH  23  26
ATOM     26  O   UNL     1      16.939  11.309 -39.960  1.00  0.00    -0.493 OA
ATOM     27  C   UNL     1      15.617  10.995 -40.391  1.00  0.00     0.278 C 
ENDBRANCH  23  26
BRANCH  25  28
ATOM     28  O   UNL     1      17.329  14.030 -40.526  1.00  0.00    -0.504 OA
ATOM     29  H   UNL     1      17.663  14.946 -40.801  1.00  0.00     0.293 HD
ENDBRANCH  25  28
ENDBRANCH  19  20
ENDBRANCH  16  18
ENDBRANCH   1  16
TORSDOF 10
ENDMDL
